Program Version,EnergyPlus, Version 8.2.0-8397c2e30b, YMD=2015.06.23 12:52
1,5,Environment Title[],Latitude[deg],Longitude[deg],Time Zone[],Elevation[m]
2,6,Day of Simulation[],Month[],Day of Month[],DST Indicator[1=yes 0=no],Hour[],StartMinute[],EndMinute[],DayType
3,3,Cumulative Day of Simulation[],Month[],Day of Month[],DST Indicator[1=yes 0=no],DayType  ! When Daily Meters Requested
4,2,Cumulative Days of Simulation[],Month[]  ! When Monthly Meters Requested
5,1,Cumulative Days of Simulation[] ! When Run Period Meters Requested
7,1,Electricity:Facility [J] !TimeStep
597,1,Gas:Facility [J] !TimeStep
End of Data Dictionary
1,DENVER CENTENNIAL  GOLDEN   N ANN CLG .4% CONDNS DB=>MWB,  39.74,-105.18,  -7.00,1829.00
2,1, 7,21, 0, 1, 0.00,10.00,SummerDesignDay
7,612211.841082033
597,35142.7415491873
2,1, 7,21, 0, 1,10.00,20.00,SummerDesignDay
7,612211.841082033
597,0.0
2,1, 7,21, 0, 1,20.00,30.00,SummerDesignDay
7,612211.841082033
597,62406.0171228211
2,1, 7,21, 0, 1,30.00,40.00,SummerDesignDay
7,612211.841082033
597,0.0
2,1, 7,21, 0, 1,40.00,50.00,SummerDesignDay
7,612211.841082033
597,61532.7750934863
2,1, 7,21, 0, 1,50.00,60.00,SummerDesignDay
7,612211.841082033
597,0.0
2,1, 7,21, 0, 2, 0.00,10.00,SummerDesignDay
7,573862.938815366
597,60719.4109199777
2,1, 7,21, 0, 2,10.00,20.00,SummerDesignDay
7,573862.938815366
597,0.0
2,1, 7,21, 0, 2,20.00,30.00,SummerDesignDay
7,573862.938815366
597,57991.7488593934
2,1, 7,21, 0, 2,30.00,40.00,SummerDesignDay
7,573862.938815366
597,0.0
2,1, 7,21, 0, 2,40.00,50.00,SummerDesignDay
7,573862.938815366
597,53227.0262494075
2,1, 7,21, 0, 2,50.00,60.00,SummerDesignDay
7,573862.938815366
597,0.0
2,1, 7,21, 0, 3, 0.00,10.00,SummerDesignDay
7,554688.487682033
597,51143.4662603472
2,1, 7,21, 0, 3,10.00,20.00,SummerDesignDay
7,554688.487682033
597,0.0
2,1, 7,21, 0, 3,20.00,30.00,SummerDesignDay
7,554688.487682033
597,48908.8260017832
2,1, 7,21, 0, 3,30.00,40.00,SummerDesignDay
7,554688.487682033
597,0.0
2,1, 7,21, 0, 3,40.00,50.00,SummerDesignDay
7,554688.487682033
597,0.0
2,1, 7,21, 0, 3,50.00,60.00,SummerDesignDay
7,554688.487682033
597,0.0
2,1, 7,21, 0, 4, 0.00,10.00,SummerDesignDay
7,545101.262115366
597,0.0
2,1, 7,21, 0, 4,10.00,20.00,SummerDesignDay
7,545101.262115366
597,0.0
2,1, 7,21, 0, 4,20.00,30.00,SummerDesignDay
7,545101.262115366
597,0.0
2,1, 7,21, 0, 4,30.00,40.00,SummerDesignDay
7,545101.262115366
597,0.0
2,1, 7,21, 0, 4,40.00,50.00,SummerDesignDay
7,545101.262115366
597,0.0
2,1, 7,21, 0, 4,50.00,60.00,SummerDesignDay
7,545101.262115366
597,0.0
2,1, 7,21, 0, 5, 0.00,10.00,SummerDesignDay
7,647012.581747366
597,0.0
2,1, 7,21, 0, 5,10.00,20.00,SummerDesignDay
7,647012.581747366
597,0.0
2,1, 7,21, 0, 5,20.00,30.00,SummerDesignDay
7,647012.581747366
597,0.0
2,1, 7,21, 0, 5,30.00,40.00,SummerDesignDay
7,647012.581747366
597,0.0
2,1, 7,21, 0, 5,40.00,50.00,SummerDesignDay
7,647012.581747366
597,0.0
2,1, 7,21, 0, 5,50.00,60.00,SummerDesignDay
7,647012.581747366
597,0.0
2,1, 7,21, 0, 6, 0.00,10.00,SummerDesignDay
7,870745.735945899
597,0.0
2,1, 7,21, 0, 6,10.00,20.00,SummerDesignDay
7,870745.735945899
597,0.0
2,1, 7,21, 0, 6,20.00,30.00,SummerDesignDay
7,870745.735945899
597,0.0
2,1, 7,21, 0, 6,30.00,40.00,SummerDesignDay
7,870745.735945899
597,0.0
2,1, 7,21, 0, 6,40.00,50.00,SummerDesignDay
7,870745.735945899
597,0.0
2,1, 7,21, 0, 6,50.00,60.00,SummerDesignDay
7,870745.735945899
597,0.0
2,1, 7,21, 0, 7, 0.00,10.00,SummerDesignDay
7,1015271.22303817
597,0.0
2,1, 7,21, 0, 7,10.00,20.00,SummerDesignDay
7,1015271.22303817
597,0.0
2,1, 7,21, 0, 7,20.00,30.00,SummerDesignDay
7,1015271.22303817
597,0.0
2,1, 7,21, 0, 7,30.00,40.00,SummerDesignDay
7,1015271.22303817
597,0.0
2,1, 7,21, 0, 7,40.00,50.00,SummerDesignDay
7,1015271.22303817
597,0.0
2,1, 7,21, 0, 7,50.00,60.00,SummerDesignDay
7,1015271.22303817
597,0.0
2,1, 7,21, 0, 8, 0.00,10.00,SummerDesignDay
7,1080815.43741563
597,0.0
2,1, 7,21, 0, 8,10.00,20.00,SummerDesignDay
7,1080815.43741563
597,0.0
2,1, 7,21, 0, 8,20.00,30.00,SummerDesignDay
7,1080815.43741563
597,0.0
2,1, 7,21, 0, 8,30.00,40.00,SummerDesignDay
7,1080815.43741563
597,0.0
2,1, 7,21, 0, 8,40.00,50.00,SummerDesignDay
7,1080815.43741563
597,0.0
2,1, 7,21, 0, 8,50.00,60.00,SummerDesignDay
7,1080815.43741563
597,0.0
2,1, 7,21, 0, 9, 0.00,10.00,SummerDesignDay
7,902715.982660033
597,0.0
2,1, 7,21, 0, 9,10.00,20.00,SummerDesignDay
7,902715.982660033
597,0.0
2,1, 7,21, 0, 9,20.00,30.00,SummerDesignDay
7,995481.962831848
597,0.0
2,1, 7,21, 0, 9,30.00,40.00,SummerDesignDay
7,1104332.10097198
597,0.0
2,1, 7,21, 0, 9,40.00,50.00,SummerDesignDay
7,1206212.85381213
597,0.0
2,1, 7,21, 0, 9,50.00,60.00,SummerDesignDay
7,1255336.91109604
597,0.0
2,1, 7,21, 0,10, 0.00,10.00,SummerDesignDay
7,1245213.49700632
597,0.0
2,1, 7,21, 0,10,10.00,20.00,SummerDesignDay
7,1282000.5074987
597,0.0
2,1, 7,21, 0,10,20.00,30.00,SummerDesignDay
7,1315866.46772355
597,0.0
2,1, 7,21, 0,10,30.00,40.00,SummerDesignDay
7,1348119.67763288
597,0.0
2,1, 7,21, 0,10,40.00,50.00,SummerDesignDay
7,1378536.6186275
597,0.0
2,1, 7,21, 0,10,50.00,60.00,SummerDesignDay
7,1407564.15723258
597,0.0
2,1, 7,21, 0,11, 0.00,10.00,SummerDesignDay
7,1455449.04113311
597,0.0
2,1, 7,21, 0,11,10.00,20.00,SummerDesignDay
7,1481084.90812253
597,0.0
2,1, 7,21, 0,11,20.00,30.00,SummerDesignDay
7,1508340.44274979
597,0.0
2,1, 7,21, 0,11,30.00,40.00,SummerDesignDay
7,1537837.71160245
597,0.0
2,1, 7,21, 0,11,40.00,50.00,SummerDesignDay
7,1569685.3162556
597,0.0
2,1, 7,21, 0,11,50.00,60.00,SummerDesignDay
7,1604112.08599925
597,0.0
2,1, 7,21, 0,12, 0.00,10.00,SummerDesignDay
7,1642987.50707201
597,0.0
2,1, 7,21, 0,12,10.00,20.00,SummerDesignDay
7,1673051.33745379
597,0.0
2,1, 7,21, 0,12,20.00,30.00,SummerDesignDay
7,1703674.00371753
597,0.0
2,1, 7,21, 0,12,30.00,40.00,SummerDesignDay
7,1733115.50161203
597,0.0
2,1, 7,21, 0,12,40.00,50.00,SummerDesignDay
7,1760040.98684183
597,0.0
2,1, 7,21, 0,12,50.00,60.00,SummerDesignDay
7,1784781.60959487
597,0.0
2,1, 7,21, 0,13, 0.00,10.00,SummerDesignDay
7,1795245.02913277
597,0.0
2,1, 7,21, 0,13,10.00,20.00,SummerDesignDay
7,1820188.04016826
597,0.0
2,1, 7,21, 0,13,20.00,30.00,SummerDesignDay
7,1844573.45123685
597,0.0
2,1, 7,21, 0,13,30.00,40.00,SummerDesignDay
7,1867041.1643863
597,0.0
2,1, 7,21, 0,13,40.00,50.00,SummerDesignDay
7,1886883.58627841
597,0.0
2,1, 7,21, 0,13,50.00,60.00,SummerDesignDay
7,1907265.44615919
597,0.0
2,1, 7,21, 0,14, 0.00,10.00,SummerDesignDay
7,1888401.78164031
597,0.0
2,1, 7,21, 0,14,10.00,20.00,SummerDesignDay
7,1905816.53288885
597,0.0
2,1, 7,21, 0,14,20.00,30.00,SummerDesignDay
7,1925679.34227935
597,0.0
2,1, 7,21, 0,14,30.00,40.00,SummerDesignDay
7,1948437.97347475
597,0.0
2,1, 7,21, 0,14,40.00,50.00,SummerDesignDay
7,1973993.14498503
597,0.0
2,1, 7,21, 0,14,50.00,60.00,SummerDesignDay
7,2002099.15927883
597,0.0
2,1, 7,21, 0,15, 0.00,10.00,SummerDesignDay
7,2010355.57256808
597,0.0
2,1, 7,21, 0,15,10.00,20.00,SummerDesignDay
7,2031037.65233042
597,0.0
2,1, 7,21, 0,15,20.00,30.00,SummerDesignDay
7,2051769.29765437
597,0.0
2,1, 7,21, 0,15,30.00,40.00,SummerDesignDay
7,2072126.90701144
597,0.0
2,1, 7,21, 0,15,40.00,50.00,SummerDesignDay
7,2091569.33679444
597,0.0
2,1, 7,21, 0,15,50.00,60.00,SummerDesignDay
7,2109605.80237533
597,0.0
2,1, 7,21, 0,16, 0.00,10.00,SummerDesignDay
7,2231971.88770125
597,0.0
2,1, 7,21, 0,16,10.00,20.00,SummerDesignDay
7,2233782.406124
597,0.0
2,1, 7,21, 0,16,20.00,30.00,SummerDesignDay
7,2234685.88669279
597,0.0
2,1, 7,21, 0,16,30.00,40.00,SummerDesignDay
7,2234379.64578172
597,0.0
2,1, 7,21, 0,16,40.00,50.00,SummerDesignDay
7,2232866.830382
597,0.0
2,1, 7,21, 0,16,50.00,60.00,SummerDesignDay
7,2230348.49409284
597,0.0
2,1, 7,21, 0,17, 0.00,10.00,SummerDesignDay
7,2584633.48207166
597,0.0
2,1, 7,21, 0,17,10.00,20.00,SummerDesignDay
7,2575768.48581767
597,0.0
2,1, 7,21, 0,17,20.00,30.00,SummerDesignDay
7,2566058.83888649
597,0.0
2,1, 7,21, 0,17,30.00,40.00,SummerDesignDay
7,2554977.1176278
597,0.0
2,1, 7,21, 0,17,40.00,50.00,SummerDesignDay
7,2542019.32134404
597,0.0
2,1, 7,21, 0,17,50.00,60.00,SummerDesignDay
7,2526505.35792789
597,0.0
2,1, 7,21, 0,18, 0.00,10.00,SummerDesignDay
7,2908361.48994642
597,0.0
2,1, 7,21, 0,18,10.00,20.00,SummerDesignDay
7,2885009.16854044
597,0.0
2,1, 7,21, 0,18,20.00,30.00,SummerDesignDay
7,2859604.44238777
597,0.0
2,1, 7,21, 0,18,30.00,40.00,SummerDesignDay
7,2828434.14640477
597,0.0
2,1, 7,21, 0,18,40.00,50.00,SummerDesignDay
7,2797314.21469116
597,0.0
2,1, 7,21, 0,18,50.00,60.00,SummerDesignDay
7,2765010.32132141
597,0.0
2,1, 7,21, 0,19, 0.00,10.00,SummerDesignDay
7,2943179.60788848
597,0.0
2,1, 7,21, 0,19,10.00,20.00,SummerDesignDay
7,2900023.18952375
597,0.0
2,1, 7,21, 0,19,20.00,30.00,SummerDesignDay
7,2854499.48762686
597,0.0
2,1, 7,21, 0,19,30.00,40.00,SummerDesignDay
7,2806411.69726982
597,0.0
2,1, 7,21, 0,19,40.00,50.00,SummerDesignDay
7,2751553.42592569
597,0.0
2,1, 7,21, 0,19,50.00,60.00,SummerDesignDay
7,2694794.0062234
597,0.0
2,1, 7,21, 0,20, 0.00,10.00,SummerDesignDay
7,2716923.89533161
597,0.0
2,1, 7,21, 0,20,10.00,20.00,SummerDesignDay
7,2667116.27863104
597,0.0
2,1, 7,21, 0,20,20.00,30.00,SummerDesignDay
7,2627916.29774751
597,0.0
2,1, 7,21, 0,20,30.00,40.00,SummerDesignDay
7,2592713.65208683
597,0.0
2,1, 7,21, 0,20,40.00,50.00,SummerDesignDay
7,2559141.90282668
597,0.0
2,1, 7,21, 0,20,50.00,60.00,SummerDesignDay
7,2525990.35766618
597,0.0
2,1, 7,21, 0,21, 0.00,10.00,SummerDesignDay
7,2464465.65028993
597,0.0
2,1, 7,21, 0,21,10.00,20.00,SummerDesignDay
7,2439408.60496815
597,0.0
2,1, 7,21, 0,21,20.00,30.00,SummerDesignDay
7,2388162.78992178
597,0.0
2,1, 7,21, 0,21,30.00,40.00,SummerDesignDay
7,2336175.97269077
597,0.0
2,1, 7,21, 0,21,40.00,50.00,SummerDesignDay
7,2283545.25980309
597,0.0
2,1, 7,21, 0,21,50.00,60.00,SummerDesignDay
7,2230360.18124078
597,0.0
2,1, 7,21, 0,22, 0.00,10.00,SummerDesignDay
7,1828889.77038269
597,0.0
2,1, 7,21, 0,22,10.00,20.00,SummerDesignDay
7,1773771.45762384
597,0.0
2,1, 7,21, 0,22,20.00,30.00,SummerDesignDay
7,1718049.248133
597,0.0
2,1, 7,21, 0,22,30.00,40.00,SummerDesignDay
7,1662175.67898203
597,0.0
2,1, 7,21, 0,22,40.00,50.00,SummerDesignDay
7,1605858.10352758
597,0.0
2,1, 7,21, 0,22,50.00,60.00,SummerDesignDay
7,1548198.01207263
597,0.0
2,1, 7,21, 0,23, 0.00,10.00,SummerDesignDay
7,1130695.44184323
597,0.0
2,1, 7,21, 0,23,10.00,20.00,SummerDesignDay
7,1130695.44184323
597,0.0
2,1, 7,21, 0,23,20.00,30.00,SummerDesignDay
7,1130695.44184323
597,0.0
2,1, 7,21, 0,23,30.00,40.00,SummerDesignDay
7,1130695.44184323
597,0.0
2,1, 7,21, 0,23,40.00,50.00,SummerDesignDay
7,1130695.44184323
597,0.0
2,1, 7,21, 0,23,50.00,60.00,SummerDesignDay
7,1130695.44184323
597,0.0
2,1, 7,21, 0,24, 0.00,10.00,SummerDesignDay
7,815827.046163499
597,0.0
2,1, 7,21, 0,24,10.00,20.00,SummerDesignDay
7,815827.046163499
597,0.0
2,1, 7,21, 0,24,20.00,30.00,SummerDesignDay
7,815827.046163499
597,0.0
2,1, 7,21, 0,24,30.00,40.00,SummerDesignDay
7,815827.046163499
597,0.0
2,1, 7,21, 0,24,40.00,50.00,SummerDesignDay
7,815827.046163499
597,0.0
2,1, 7,21, 0,24,50.00,60.00,SummerDesignDay
7,815827.046163499
597,0.0
1,DENVER CENTENNIAL  GOLDEN   N ANN CLG .4% CONDNS DP=>MDB,  39.74,-105.18,  -7.00,1829.00
2,1, 7,21, 0, 1, 0.00,10.00,SummerDesignDay
7,612211.841082033
597,4251120.58041114
2,1, 7,21, 0, 1,10.00,20.00,SummerDesignDay
7,612211.841082033
597,4341332.40386824
2,1, 7,21, 0, 1,20.00,30.00,SummerDesignDay
7,612211.841082033
597,4430891.07002314
2,1, 7,21, 0, 1,30.00,40.00,SummerDesignDay
7,612211.841082033
597,4519941.840713
2,1, 7,21, 0, 1,40.00,50.00,SummerDesignDay
7,612211.841082033
597,4608239.818846
2,1, 7,21, 0, 1,50.00,60.00,SummerDesignDay
7,612211.841082033
597,4695823.05538233
2,1, 7,21, 0, 2, 0.00,10.00,SummerDesignDay
7,573862.938815366
597,4798533.03460377
2,1, 7,21, 0, 2,10.00,20.00,SummerDesignDay
7,573862.938815366
597,4868157.74605951
2,1, 7,21, 0, 2,20.00,30.00,SummerDesignDay
7,573862.938815366
597,4936849.84378866
2,1, 7,21, 0, 2,30.00,40.00,SummerDesignDay
7,573862.938815366
597,5004692.8363292
2,1, 7,21, 0, 2,40.00,50.00,SummerDesignDay
7,573862.938815366
597,5071761.57855416
2,1, 7,21, 0, 2,50.00,60.00,SummerDesignDay
7,573862.938815366
597,5138110.65586222
2,1, 7,21, 0, 3, 0.00,10.00,SummerDesignDay
7,554688.487682033
597,5211642.5456746
2,1, 7,21, 0, 3,10.00,20.00,SummerDesignDay
7,554688.487682033
597,5268297.79530292
2,1, 7,21, 0, 3,20.00,30.00,SummerDesignDay
7,554688.487682033
597,5324171.30047755
2,1, 7,21, 0, 3,30.00,40.00,SummerDesignDay
7,554688.487682033
597,5379317.45362083
2,1, 7,21, 0, 3,40.00,50.00,SummerDesignDay
7,554688.487682033
597,5433781.92169933
2,1, 7,21, 0, 3,50.00,60.00,SummerDesignDay
7,554688.487682033
597,5487601.43120392
2,1, 7,21, 0, 4, 0.00,10.00,SummerDesignDay
7,545101.262115366
597,5548985.28378853
2,1, 7,21, 0, 4,10.00,20.00,SummerDesignDay
7,545101.262115366
597,5601594.87511881
2,1, 7,21, 0, 4,20.00,30.00,SummerDesignDay
7,545101.262115366
597,5653646.5029145
2,1, 7,21, 0, 4,30.00,40.00,SummerDesignDay
7,545101.262115366
597,5705159.15450186
2,1, 7,21, 0, 4,40.00,50.00,SummerDesignDay
7,545101.262115366
597,5756156.95468301
2,1, 7,21, 0, 4,50.00,60.00,SummerDesignDay
7,545101.262115366
597,5806662.98599286
2,1, 7,21, 0, 5, 0.00,10.00,SummerDesignDay
7,647012.581747366
597,5777474.13552224
2,1, 7,21, 0, 5,10.00,20.00,SummerDesignDay
7,647012.581747366
597,5818692.55272921
2,1, 7,21, 0, 5,20.00,30.00,SummerDesignDay
7,647012.581747366
597,5859251.58045516
2,1, 7,21, 0, 5,30.00,40.00,SummerDesignDay
7,647012.581747366
597,5899252.32375157
2,1, 7,21, 0, 5,40.00,50.00,SummerDesignDay
7,647012.581747366
597,5938733.20893354
2,1, 7,21, 0, 5,50.00,60.00,SummerDesignDay
7,647012.581747366
597,5932382.75116933
2,1, 7,21, 0, 6, 0.00,10.00,SummerDesignDay
7,870745.735945899
597,5679416.2252761
2,1, 7,21, 0, 6,10.00,20.00,SummerDesignDay
7,870745.735945899
597,5542979.47487659
2,1, 7,21, 0, 6,20.00,30.00,SummerDesignDay
7,870745.735945899
597,5388287.64499191
2,1, 7,21, 0, 6,30.00,40.00,SummerDesignDay
7,870745.735945899
597,5261702.37323921
2,1, 7,21, 0, 6,40.00,50.00,SummerDesignDay
7,870745.735945899
597,5143111.05271196
2,1, 7,21, 0, 6,50.00,60.00,SummerDesignDay
7,870745.735945899
597,5028299.04844901
2,1, 7,21, 0, 7, 0.00,10.00,SummerDesignDay
7,1015271.22303817
597,4762548.86673559
2,1, 7,21, 0, 7,10.00,20.00,SummerDesignDay
7,1015271.22303817
597,4613917.24269619
2,1, 7,21, 0, 7,20.00,30.00,SummerDesignDay
7,1015271.22303817
597,4461628.69466584
2,1, 7,21, 0, 7,30.00,40.00,SummerDesignDay
7,1015271.22303817
597,4291408.87276497
2,1, 7,21, 0, 7,40.00,50.00,SummerDesignDay
7,1015271.22303817
597,4134018.15377232
2,1, 7,21, 0, 7,50.00,60.00,SummerDesignDay
7,1015271.22303817
597,3985176.57795389
2,1, 7,21, 0, 8, 0.00,10.00,SummerDesignDay
7,1080815.43741563
597,3740909.92663153
2,1, 7,21, 0, 8,10.00,20.00,SummerDesignDay
7,1080815.43741563
597,3528586.07293191
2,1, 7,21, 0, 8,20.00,30.00,SummerDesignDay
7,1080815.43741563
597,3325003.35412513
2,1, 7,21, 0, 8,30.00,40.00,SummerDesignDay
7,1080815.43741563
597,3129463.53133484
2,1, 7,21, 0, 8,40.00,50.00,SummerDesignDay
7,1080815.43741563
597,2939871.72363465
2,1, 7,21, 0, 8,50.00,60.00,SummerDesignDay
7,1080815.43741563
597,2751755.6683225
2,1, 7,21, 0, 9, 0.00,10.00,SummerDesignDay
7,902715.982660033
597,2789252.18958135
2,1, 7,21, 0, 9,10.00,20.00,SummerDesignDay
7,902715.982660033
597,2590891.2295549
2,1, 7,21, 0, 9,20.00,30.00,SummerDesignDay
7,902715.982660033
597,2394071.50573433
2,1, 7,21, 0, 9,30.00,40.00,SummerDesignDay
7,902715.982660033
597,2203136.33019169
2,1, 7,21, 0, 9,40.00,50.00,SummerDesignDay
7,902715.982660033
597,2013404.05929544
2,1, 7,21, 0, 9,50.00,60.00,SummerDesignDay
7,902715.982660033
597,1825049.83570339
2,1, 7,21, 0,10, 0.00,10.00,SummerDesignDay
7,867292.375389233
597,1720582.62693207
2,1, 7,21, 0,10,10.00,20.00,SummerDesignDay
7,867292.375389233
597,1567399.22215318
2,1, 7,21, 0,10,20.00,30.00,SummerDesignDay
7,867292.375389233
597,1424014.38025787
2,1, 7,21, 0,10,30.00,40.00,SummerDesignDay
7,867292.375389233
597,1290555.16725069
2,1, 7,21, 0,10,40.00,50.00,SummerDesignDay
7,867292.375389233
597,1165759.83434177
2,1, 7,21, 0,10,50.00,60.00,SummerDesignDay
7,867292.375389233
597,1043697.09489838
2,1, 7,21, 0,11, 0.00,10.00,SummerDesignDay
7,886466.826522566
597,929489.907944255
2,1, 7,21, 0,11,10.00,20.00,SummerDesignDay
7,886466.826522566
597,833782.228708846
2,1, 7,21, 0,11,20.00,30.00,SummerDesignDay
7,886466.826522566
597,733918.942638676
2,1, 7,21, 0,11,30.00,40.00,SummerDesignDay
7,886466.826522566
597,624263.532122173
2,1, 7,21, 0,11,40.00,50.00,SummerDesignDay
7,886466.826522566
597,500963.433459719
2,1, 7,21, 0,11,50.00,60.00,SummerDesignDay
7,886466.826522566
597,363321.108996142
2,1, 7,21, 0,12, 0.00,10.00,SummerDesignDay
7,896054.052089233
597,245892.525748907
2,1, 7,21, 0,12,10.00,20.00,SummerDesignDay
7,896054.052089233
597,126490.822134058
2,1, 7,21, 0,12,20.00,30.00,SummerDesignDay
7,896054.052089233
597,0.0
2,1, 7,21, 0,12,30.00,40.00,SummerDesignDay
7,896054.052089233
597,0.0
2,1, 7,21, 0,12,40.00,50.00,SummerDesignDay
7,896054.052089233
597,0.0
2,1, 7,21, 0,12,50.00,60.00,SummerDesignDay
7,896054.052089233
597,0.0
2,1, 7,21, 0,13, 0.00,10.00,SummerDesignDay
7,886466.826522566
597,0.0
2,1, 7,21, 0,13,10.00,20.00,SummerDesignDay
7,886466.826522566
597,0.0
2,1, 7,21, 0,13,20.00,30.00,SummerDesignDay
7,886466.826522566
597,0.0
2,1, 7,21, 0,13,30.00,40.00,SummerDesignDay
7,886466.826522566
597,0.0
2,1, 7,21, 0,13,40.00,50.00,SummerDesignDay
7,886466.826522566
597,0.0
2,1, 7,21, 0,13,50.00,60.00,SummerDesignDay
7,886466.826522566
597,0.0
2,1, 7,21, 0,14, 0.00,10.00,SummerDesignDay
7,857705.149822566
597,0.0
2,1, 7,21, 0,14,10.00,20.00,SummerDesignDay
7,857705.149822566
597,0.0
2,1, 7,21, 0,14,20.00,30.00,SummerDesignDay
7,857705.149822566
597,0.0
2,1, 7,21, 0,14,30.00,40.00,SummerDesignDay
7,857705.149822566
597,0.0
2,1, 7,21, 0,14,40.00,50.00,SummerDesignDay
7,857705.149822566
597,0.0
2,1, 7,21, 0,14,50.00,60.00,SummerDesignDay
7,857705.149822566
597,0.0
2,1, 7,21, 0,15, 0.00,10.00,SummerDesignDay
7,848117.924255899
597,0.0
2,1, 7,21, 0,15,10.00,20.00,SummerDesignDay
7,848117.924255899
597,0.0
2,1, 7,21, 0,15,20.00,30.00,SummerDesignDay
7,848117.924255899
597,0.0
2,1, 7,21, 0,15,30.00,40.00,SummerDesignDay
7,848117.924255899
597,0.0
2,1, 7,21, 0,15,40.00,50.00,SummerDesignDay
7,848117.924255899
597,0.0
2,1, 7,21, 0,15,50.00,60.00,SummerDesignDay
7,848117.924255899
597,0.0
2,1, 7,21, 0,16, 0.00,10.00,SummerDesignDay
7,950765.3076891
597,0.0
2,1, 7,21, 0,16,10.00,20.00,SummerDesignDay
7,950765.3076891
597,0.0
2,1, 7,21, 0,16,20.00,30.00,SummerDesignDay
7,950765.3076891
597,0.0
2,1, 7,21, 0,16,30.00,40.00,SummerDesignDay
7,950765.3076891
597,0.0
2,1, 7,21, 0,16,40.00,50.00,SummerDesignDay
7,950765.3076891
597,0.0
2,1, 7,21, 0,16,50.00,60.00,SummerDesignDay
7,950765.3076891
597,0.0
2,1, 7,21, 0,17, 0.00,10.00,SummerDesignDay
7,1263689.82677457
597,0.0
2,1, 7,21, 0,17,10.00,20.00,SummerDesignDay
7,1263689.82677457
597,0.0
2,1, 7,21, 0,17,20.00,30.00,SummerDesignDay
7,1263689.82677457
597,0.0
2,1, 7,21, 0,17,30.00,40.00,SummerDesignDay
7,1263689.82677457
597,0.0
2,1, 7,21, 0,17,40.00,50.00,SummerDesignDay
7,1263689.82677457
597,0.0
2,1, 7,21, 0,17,50.00,60.00,SummerDesignDay
7,1263689.82677457
597,0.0
2,1, 7,21, 0,18, 0.00,10.00,SummerDesignDay
7,1605753.5345651
597,0.0
2,1, 7,21, 0,18,10.00,20.00,SummerDesignDay
7,1605753.5345651
597,0.0
2,1, 7,21, 0,18,20.00,30.00,SummerDesignDay
7,1605753.5345651
597,0.0
2,1, 7,21, 0,18,30.00,40.00,SummerDesignDay
7,1605753.5345651
597,0.0
2,1, 7,21, 0,18,40.00,50.00,SummerDesignDay
7,1605753.5345651
597,17274.4378601525
2,1, 7,21, 0,18,50.00,60.00,SummerDesignDay
7,1605753.5345651
597,19204.9554981465
2,1, 7,21, 0,19, 0.00,10.00,SummerDesignDay
7,1786646.1269119
597,0.0
2,1, 7,21, 0,19,10.00,20.00,SummerDesignDay
7,1786646.1269119
597,0.0
2,1, 7,21, 0,19,20.00,30.00,SummerDesignDay
7,1786646.1269119
597,23139.9371912216
2,1, 7,21, 0,19,30.00,40.00,SummerDesignDay
7,1786646.1269119
597,25906.6082319669
2,1, 7,21, 0,19,40.00,50.00,SummerDesignDay
7,1786646.1269119
597,28225.5796990576
2,1, 7,21, 0,19,50.00,60.00,SummerDesignDay
7,1786646.1269119
597,31330.1464621782
2,1, 7,21, 0,20, 0.00,10.00,SummerDesignDay
7,1852869.52446377
597,31307.2130119326
2,1, 7,21, 0,20,10.00,20.00,SummerDesignDay
7,1852869.52446377
597,32620.9597943002
2,1, 7,21, 0,20,20.00,30.00,SummerDesignDay
7,1852869.52446377
597,31636.1452775901
2,1, 7,21, 0,20,30.00,40.00,SummerDesignDay
7,1852869.52446377
597,28660.4215217597
2,1, 7,21, 0,20,40.00,50.00,SummerDesignDay
7,1852869.52446377
597,105712.534670919
2,1, 7,21, 0,20,50.00,60.00,SummerDesignDay
7,1852869.52446377
597,357359.616244394
2,1, 7,21, 0,21, 0.00,10.00,SummerDesignDay
7,1826410.27615417
597,550485.027118532
2,1, 7,21, 0,21,10.00,20.00,SummerDesignDay
7,1826410.27615417
597,705353.471414678
2,1, 7,21, 0,21,20.00,30.00,SummerDesignDay
7,1826410.27615417
597,849828.101033404
2,1, 7,21, 0,21,30.00,40.00,SummerDesignDay
7,1826410.27615417
597,983417.177659847
2,1, 7,21, 0,21,40.00,50.00,SummerDesignDay
7,1826410.27615417
597,1112071.12426096
2,1, 7,21, 0,21,50.00,60.00,SummerDesignDay
7,1826410.27615417
597,1241244.62127651
2,1, 7,21, 0,22, 0.00,10.00,SummerDesignDay
7,1526488.98683203
597,1552022.57706408
2,1, 7,21, 0,22,10.00,20.00,SummerDesignDay
7,1526488.98683203
597,1675938.91297919
2,1, 7,21, 0,22,20.00,30.00,SummerDesignDay
7,1526488.98683203
597,1804450.31157602
2,1, 7,21, 0,22,30.00,40.00,SummerDesignDay
7,1526488.98683203
597,1928038.69303048
2,1, 7,21, 0,22,40.00,50.00,SummerDesignDay
7,1526488.98683203
597,2057244.7282611
2,1, 7,21, 0,22,50.00,60.00,SummerDesignDay
7,1526488.98683203
597,2186997.998017
2,1, 7,21, 0,23, 0.00,10.00,SummerDesignDay
7,1130695.44184323
597,2594297.73196103
2,1, 7,21, 0,23,10.00,20.00,SummerDesignDay
7,1130695.44184323
597,2706531.96074688
2,1, 7,21, 0,23,20.00,30.00,SummerDesignDay
7,1130695.44184323
597,2816326.31228605
2,1, 7,21, 0,23,30.00,40.00,SummerDesignDay
7,1130695.44184323
597,2924529.15060929
2,1, 7,21, 0,23,40.00,50.00,SummerDesignDay
7,1130695.44184323
597,3033854.90384533
2,1, 7,21, 0,23,50.00,60.00,SummerDesignDay
7,1130695.44184323
597,3141598.24820625
2,1, 7,21, 0,24, 0.00,10.00,SummerDesignDay
7,815827.046163499
597,3486107.77168898
2,1, 7,21, 0,24,10.00,20.00,SummerDesignDay
7,815827.046163499
597,3590979.56577736
2,1, 7,21, 0,24,20.00,30.00,SummerDesignDay
7,815827.046163499
597,3694307.7183761
2,1, 7,21, 0,24,30.00,40.00,SummerDesignDay
7,815827.046163499
597,3796217.72641768
2,1, 7,21, 0,24,40.00,50.00,SummerDesignDay
7,815827.046163499
597,3897484.00967261
2,1, 7,21, 0,24,50.00,60.00,SummerDesignDay
7,815827.046163499
597,3998035.03038744
1,DENVER CENTENNIAL  GOLDEN   N ANN CLG .4% CONDNS ENTH=>MDB,  39.74,-105.18,  -7.00,1829.00
2,1, 7,21, 0, 1, 0.00,10.00,SummerDesignDay
7,612211.841082033
597,883450.932940337
2,1, 7,21, 0, 1,10.00,20.00,SummerDesignDay
7,612211.841082033
597,973498.08160869
2,1, 7,21, 0, 1,20.00,30.00,SummerDesignDay
7,612211.841082033
597,1063440.5910218
2,1, 7,21, 0, 1,30.00,40.00,SummerDesignDay
7,612211.841082033
597,1151490.39470417
2,1, 7,21, 0, 1,40.00,50.00,SummerDesignDay
7,612211.841082033
597,1237250.47012739
2,1, 7,21, 0, 1,50.00,60.00,SummerDesignDay
7,612211.841082033
597,1321102.56188012
2,1, 7,21, 0, 2, 0.00,10.00,SummerDesignDay
7,573862.938815366
597,1422313.33358194
2,1, 7,21, 0, 2,10.00,20.00,SummerDesignDay
7,573862.938815366
597,1489589.89947542
2,1, 7,21, 0, 2,20.00,30.00,SummerDesignDay
7,573862.938815366
597,1555194.4773966
2,1, 7,21, 0, 2,30.00,40.00,SummerDesignDay
7,573862.938815366
597,1618502.07016694
2,1, 7,21, 0, 2,40.00,50.00,SummerDesignDay
7,573862.938815366
597,1684186.48898725
2,1, 7,21, 0, 2,50.00,60.00,SummerDesignDay
7,573862.938815366
597,1748961.41908322
2,1, 7,21, 0, 3, 0.00,10.00,SummerDesignDay
7,554688.487682033
597,1821204.52672206
2,1, 7,21, 0, 3,10.00,20.00,SummerDesignDay
7,554688.487682033
597,1878581.59475961
2,1, 7,21, 0, 3,20.00,30.00,SummerDesignDay
7,554688.487682033
597,1934766.69035468
2,1, 7,21, 0, 3,30.00,40.00,SummerDesignDay
7,554688.487682033
597,1990357.12993398
2,1, 7,21, 0, 3,40.00,50.00,SummerDesignDay
7,554688.487682033
597,2045253.66801532
2,1, 7,21, 0, 3,50.00,60.00,SummerDesignDay
7,554688.487682033
597,2099434.0422141
2,1, 7,21, 0, 4, 0.00,10.00,SummerDesignDay
7,545101.262115366
597,2161049.02312732
2,1, 7,21, 0, 4,10.00,20.00,SummerDesignDay
7,545101.262115366
597,2213685.68407183
2,1, 7,21, 0, 4,20.00,30.00,SummerDesignDay
7,545101.262115366
597,2265376.13196032
2,1, 7,21, 0, 4,30.00,40.00,SummerDesignDay
7,545101.262115366
597,2317459.42672608
2,1, 7,21, 0, 4,40.00,50.00,SummerDesignDay
7,545101.262115366
597,2369379.57067768
2,1, 7,21, 0, 4,50.00,60.00,SummerDesignDay
7,545101.262115366
597,2420869.08649099
2,1, 7,21, 0, 5, 0.00,10.00,SummerDesignDay
7,647012.581747366
597,2393112.01371641
2,1, 7,21, 0, 5,10.00,20.00,SummerDesignDay
7,647012.581747366
597,2435770.83999196
2,1, 7,21, 0, 5,20.00,30.00,SummerDesignDay
7,647012.581747366
597,2477733.22151263
2,1, 7,21, 0, 5,30.00,40.00,SummerDesignDay
7,647012.581747366
597,2519066.72165894
2,1, 7,21, 0, 5,40.00,50.00,SummerDesignDay
7,647012.581747366
597,2559793.04228041
2,1, 7,21, 0, 5,50.00,60.00,SummerDesignDay
7,647012.581747366
597,2560203.58868484
2,1, 7,21, 0, 6, 0.00,10.00,SummerDesignDay
7,870745.735945899
597,2322365.75340994
2,1, 7,21, 0, 6,10.00,20.00,SummerDesignDay
7,870745.735945899
597,2208811.03422877
2,1, 7,21, 0, 6,20.00,30.00,SummerDesignDay
7,870745.735945899
597,2083119.02063152
2,1, 7,21, 0, 6,30.00,40.00,SummerDesignDay
7,870745.735945899
597,1986149.10974016
2,1, 7,21, 0, 6,40.00,50.00,SummerDesignDay
7,870745.735945899
597,1892403.84922223
2,1, 7,21, 0, 6,50.00,60.00,SummerDesignDay
7,870745.735945899
597,1796358.22778701
2,1, 7,21, 0, 7, 0.00,10.00,SummerDesignDay
7,1015271.22303817
597,1548128.55347896
2,1, 7,21, 0, 7,10.00,20.00,SummerDesignDay
7,1015271.22303817
597,1413425.04616752
2,1, 7,21, 0, 7,20.00,30.00,SummerDesignDay
7,1015271.22303817
597,1282544.24487488
2,1, 7,21, 0, 7,30.00,40.00,SummerDesignDay
7,1015271.22303817
597,1143299.72565931
2,1, 7,21, 0, 7,40.00,50.00,SummerDesignDay
7,1015271.22303817
597,1013952.42949294
2,1, 7,21, 0, 7,50.00,60.00,SummerDesignDay
7,1015271.22303817
597,892178.825215117
2,1, 7,21, 0, 8, 0.00,10.00,SummerDesignDay
7,1080815.43741563
597,676957.264020502
2,1, 7,21, 0, 8,10.00,20.00,SummerDesignDay
7,1080815.43741563
597,495250.927295709
2,1, 7,21, 0, 8,20.00,30.00,SummerDesignDay
7,1080815.43741563
597,324021.829762367
2,1, 7,21, 0, 8,30.00,40.00,SummerDesignDay
7,1080815.43741563
597,159690.05257641
2,1, 7,21, 0, 8,40.00,50.00,SummerDesignDay
7,1080815.43741563
597,0.0
2,1, 7,21, 0, 8,50.00,60.00,SummerDesignDay
7,1080815.43741563
597,0.0
2,1, 7,21, 0, 9, 0.00,10.00,SummerDesignDay
7,902715.982660033
597,0.0
2,1, 7,21, 0, 9,10.00,20.00,SummerDesignDay
7,902715.982660033
597,0.0
2,1, 7,21, 0, 9,20.00,30.00,SummerDesignDay
7,902715.982660033
597,0.0
2,1, 7,21, 0, 9,30.00,40.00,SummerDesignDay
7,902715.982660033
597,0.0
2,1, 7,21, 0, 9,40.00,50.00,SummerDesignDay
7,902715.982660033
597,0.0
2,1, 7,21, 0, 9,50.00,60.00,SummerDesignDay
7,902715.982660033
597,0.0
2,1, 7,21, 0,10, 0.00,10.00,SummerDesignDay
7,879585.104117859
597,0.0
2,1, 7,21, 0,10,10.00,20.00,SummerDesignDay
7,879647.923963594
597,0.0
2,1, 7,21, 0,10,20.00,30.00,SummerDesignDay
7,880753.8027672
597,0.0
2,1, 7,21, 0,10,30.00,40.00,SummerDesignDay
7,881080.979396788
597,0.0
2,1, 7,21, 0,10,40.00,50.00,SummerDesignDay
7,881053.7635489
597,0.0
2,1, 7,21, 0,10,50.00,60.00,SummerDesignDay
7,881094.486074846
597,0.0
2,1, 7,21, 0,11, 0.00,10.00,SummerDesignDay
7,900658.095986114
597,0.0
2,1, 7,21, 0,11,10.00,20.00,SummerDesignDay
7,900608.23433463
597,0.0
2,1, 7,21, 0,11,20.00,30.00,SummerDesignDay
7,900601.992051807
597,0.0
2,1, 7,21, 0,11,30.00,40.00,SummerDesignDay
7,901132.500212531
597,0.0
2,1, 7,21, 0,11,40.00,50.00,SummerDesignDay
7,1025139.09902624
597,0.0
2,1, 7,21, 0,11,50.00,60.00,SummerDesignDay
7,1148183.85247263
597,0.0
2,1, 7,21, 0,12, 0.00,10.00,SummerDesignDay
7,1255702.51832424
597,0.0
2,1, 7,21, 0,12,10.00,20.00,SummerDesignDay
7,1347461.89840002
597,0.0
2,1, 7,21, 0,12,20.00,30.00,SummerDesignDay
7,1430701.63169811
597,0.0
2,1, 7,21, 0,12,30.00,40.00,SummerDesignDay
7,1508609.56108283
597,0.0
2,1, 7,21, 0,12,40.00,50.00,SummerDesignDay
7,1576745.96587886
597,0.0
2,1, 7,21, 0,12,50.00,60.00,SummerDesignDay
7,1638520.5924765
597,0.0
2,1, 7,21, 0,13, 0.00,10.00,SummerDesignDay
7,1677767.55298849
597,0.0
2,1, 7,21, 0,13,10.00,20.00,SummerDesignDay
7,1736385.63747038
597,0.0
2,1, 7,21, 0,13,20.00,30.00,SummerDesignDay
7,1791908.12298739
597,0.0
2,1, 7,21, 0,13,30.00,40.00,SummerDesignDay
7,1842050.57653123
597,0.0
2,1, 7,21, 0,13,40.00,50.00,SummerDesignDay
7,1886789.70528207
597,0.0
2,1, 7,21, 0,13,50.00,60.00,SummerDesignDay
7,1931885.25525959
597,0.0
2,1, 7,21, 0,14, 0.00,10.00,SummerDesignDay
7,1924803.62745042
597,0.0
2,1, 7,21, 0,14,10.00,20.00,SummerDesignDay
7,1963675.91595721
597,0.0
2,1, 7,21, 0,14,20.00,30.00,SummerDesignDay
7,2005408.17442845
597,0.0
2,1, 7,21, 0,14,30.00,40.00,SummerDesignDay
7,2049456.61671435
597,0.0
2,1, 7,21, 0,14,40.00,50.00,SummerDesignDay
7,2096355.82576632
597,0.0
2,1, 7,21, 0,14,50.00,60.00,SummerDesignDay
7,2144110.18019439
597,0.0
2,1, 7,21, 0,15, 0.00,10.00,SummerDesignDay
7,2163072.66151214
597,0.0
2,1, 7,21, 0,15,10.00,20.00,SummerDesignDay
7,2194937.81559162
597,0.0
2,1, 7,21, 0,15,20.00,30.00,SummerDesignDay
7,2224666.27070838
597,0.0
2,1, 7,21, 0,15,30.00,40.00,SummerDesignDay
7,2251909.99022763
597,0.0
2,1, 7,21, 0,15,40.00,50.00,SummerDesignDay
7,2276773.23749729
597,0.0
2,1, 7,21, 0,15,50.00,60.00,SummerDesignDay
7,2299910.09203861
597,0.0
2,1, 7,21, 0,16, 0.00,10.00,SummerDesignDay
7,2431759.18300953
597,0.0
2,1, 7,21, 0,16,10.00,20.00,SummerDesignDay
7,2413074.26063652
597,0.0
2,1, 7,21, 0,16,20.00,30.00,SummerDesignDay
7,2403623.53285025
597,0.0
2,1, 7,21, 0,16,30.00,40.00,SummerDesignDay