Program Version,EnergyPlus, Version 8.2.0-8397c2e30b, YMD=2015.06.19 08:47
1,5,Environment Title[],Latitude[deg],Longitude[deg],Time Zone[],Elevation[m]
2,6,Day of Simulation[],Month[],Day of Month[],DST Indicator[1=yes 0=no],Hour[],StartMinute[],EndMinute[],DayType
3,3,Cumulative Day of Simulation[],Month[],Day of Month[],DST Indicator[1=yes 0=no],DayType  ! When Daily Report Variables Requested
4,2,Cumulative Days of Simulation[],Month[]  ! When Monthly Report Variables Requested
5,1,Cumulative Days of Simulation[] ! When Run Period Report Variables Requested
7,1,Electricity:Facility [J] !TimeStep
End of Data Dictionary
1,DENVER CENTENNIAL  GOLDEN   N ANN CLG .4% CONDNS DB=>MWB,  39.74,-105.18,  -7.00,1829.00
2,1, 7,21, 0, 1, 0.00,10.00,SummerDesignDay
7,407732.430911426
2,1, 7,21, 0, 1,10.00,20.00,SummerDesignDay
7,407732.430911426
2,1, 7,21, 0, 1,20.00,30.00,SummerDesignDay
7,407732.430911426
2,1, 7,21, 0, 1,30.00,40.00,SummerDesignDay
7,407732.430911426
2,1, 7,21, 0, 1,40.00,50.00,SummerDesignDay
7,407732.430911426
2,1, 7,21, 0, 1,50.00,60.00,SummerDesignDay
7,407732.430911426
2,1, 7,21, 0, 2, 0.00,10.00,SummerDesignDay
7,378424.781978093
2,1, 7,21, 0, 2,10.00,20.00,SummerDesignDay
7,378424.781978093
2,1, 7,21, 0, 2,20.00,30.00,SummerDesignDay
7,378424.781978093
2,1, 7,21, 0, 2,30.00,40.00,SummerDesignDay
7,378424.781978093
2,1, 7,21, 0, 2,40.00,50.00,SummerDesignDay
7,378424.781978093
2,1, 7,21, 0, 2,50.00,60.00,SummerDesignDay
7,378424.781978093
2,1, 7,21, 0, 3, 0.00,10.00,SummerDesignDay
7,363770.957511426
2,1, 7,21, 0, 3,10.00,20.00,SummerDesignDay
7,363770.957511426
2,1, 7,21, 0, 3,20.00,30.00,SummerDesignDay
7,363770.957511426
2,1, 7,21, 0, 3,30.00,40.00,SummerDesignDay
7,363770.957511426
2,1, 7,21, 0, 3,40.00,50.00,SummerDesignDay
7,363770.957511426
2,1, 7,21, 0, 3,50.00,60.00,SummerDesignDay
7,363770.957511426
2,1, 7,21, 0, 4, 0.00,10.00,SummerDesignDay
7,356444.045278093
2,1, 7,21, 0, 4,10.00,20.00,SummerDesignDay
7,356444.045278093
2,1, 7,21, 0, 4,20.00,30.00,SummerDesignDay
7,356444.045278093
2,1, 7,21, 0, 4,30.00,40.00,SummerDesignDay
7,356444.045278093
2,1, 7,21, 0, 4,40.00,50.00,SummerDesignDay
7,356444.045278093
2,1, 7,21, 0, 4,50.00,60.00,SummerDesignDay
7,356444.045278093
2,1, 7,21, 0, 5, 0.00,10.00,SummerDesignDay
7,428472.922510093
2,1, 7,21, 0, 5,10.00,20.00,SummerDesignDay
7,428472.922510093
2,1, 7,21, 0, 5,20.00,30.00,SummerDesignDay
7,428472.922510093
2,1, 7,21, 0, 5,30.00,40.00,SummerDesignDay
7,428472.922510093
2,1, 7,21, 0, 5,40.00,50.00,SummerDesignDay
7,428472.922510093
2,1, 7,21, 0, 5,50.00,60.00,SummerDesignDay
7,428472.922510093
2,1, 7,21, 0, 6, 0.00,10.00,SummerDesignDay
7,589357.29690196
2,1, 7,21, 0, 6,10.00,20.00,SummerDesignDay
7,589357.29690196
2,1, 7,21, 0, 6,20.00,30.00,SummerDesignDay
7,589357.29690196
2,1, 7,21, 0, 6,30.00,40.00,SummerDesignDay
7,589357.29690196
2,1, 7,21, 0, 6,40.00,50.00,SummerDesignDay
7,589357.29690196
2,1, 7,21, 0, 6,50.00,60.00,SummerDesignDay
7,589357.29690196
2,1, 7,21, 0, 7, 0.00,10.00,SummerDesignDay
7,697564.401074226
2,1, 7,21, 0, 7,10.00,20.00,SummerDesignDay
7,699575.370648217
2,1, 7,21, 0, 7,20.00,30.00,SummerDesignDay
7,698842.306968627
2,1, 7,21, 0, 7,30.00,40.00,SummerDesignDay
7,698900.830369507
2,1, 7,21, 0, 7,40.00,50.00,SummerDesignDay
7,698985.755512933
2,1, 7,21, 0, 7,50.00,60.00,SummerDesignDay
7,698962.770523764
2,1, 7,21, 0, 8, 0.00,10.00,SummerDesignDay
7,750752.224344515
2,1, 7,21, 0, 8,10.00,20.00,SummerDesignDay
7,750892.032309545
2,1, 7,21, 0, 8,20.00,30.00,SummerDesignDay
7,749949.125391693
2,1, 7,21, 0, 8,30.00,40.00,SummerDesignDay
7,752210.584392224
2,1, 7,21, 0, 8,40.00,50.00,SummerDesignDay
7,752120.116319159
2,1, 7,21, 0, 8,50.00,60.00,SummerDesignDay
7,752193.17278487
2,1, 7,21, 0, 9, 0.00,10.00,SummerDesignDay
7,645827.752466233
2,1, 7,21, 0, 9,10.00,20.00,SummerDesignDay
7,708903.221092192
2,1, 7,21, 0, 9,20.00,30.00,SummerDesignDay
7,765648.457604149
2,1, 7,21, 0, 9,30.00,40.00,SummerDesignDay
7,820607.039648578
2,1, 7,21, 0, 9,40.00,50.00,SummerDesignDay
7,908215.498389218
2,1, 7,21, 0, 9,50.00,60.00,SummerDesignDay
7,981026.879191036
2,1, 7,21, 0,10, 0.00,10.00,SummerDesignDay
7,991068.699937687
2,1, 7,21, 0,10,10.00,20.00,SummerDesignDay
7,1034905.10591447
2,1, 7,21, 0,10,20.00,30.00,SummerDesignDay
7,1072845.23568469
2,1, 7,21, 0,10,30.00,40.00,SummerDesignDay
7,1105612.90741607
2,1, 7,21, 0,10,40.00,50.00,SummerDesignDay
7,1136246.17916119
2,1, 7,21, 0,10,50.00,60.00,SummerDesignDay
7,1164651.0835021
2,1, 7,21, 0,11, 0.00,10.00,SummerDesignDay
7,1206688.80000228
2,1, 7,21, 0,11,10.00,20.00,SummerDesignDay
7,1230301.9089339
2,1, 7,21, 0,11,20.00,30.00,SummerDesignDay
7,1255352.47235714
2,1, 7,21, 0,11,30.00,40.00,SummerDesignDay
7,1282529.36042832
2,1, 7,21, 0,11,40.00,50.00,SummerDesignDay
7,1312001.6947267
2,1, 7,21, 0,11,50.00,60.00,SummerDesignDay
7,1344067.57009382
2,1, 7,21, 0,12, 0.00,10.00,SummerDesignDay
7,1378449.44455264
2,1, 7,21, 0,12,10.00,20.00,SummerDesignDay
7,1405823.20311225
2,1, 7,21, 0,12,20.00,30.00,SummerDesignDay
7,1434046.53293802
2,1, 7,21, 0,12,30.00,40.00,SummerDesignDay
7,1461240.6745902
2,1, 7,21, 0,12,40.00,50.00,SummerDesignDay
7,1485943.43724718
2,1, 7,21, 0,12,50.00,60.00,SummerDesignDay
7,1508459.49178655
2,1, 7,21, 0,13, 0.00,10.00,SummerDesignDay
7,1518823.57606979
2,1, 7,21, 0,13,10.00,20.00,SummerDesignDay
7,1541355.79035345
2,1, 7,21, 0,13,20.00,30.00,SummerDesignDay
7,1563638.94985104
2,1, 7,21, 0,13,30.00,40.00,SummerDesignDay
7,1584248.73257116
2,1, 7,21, 0,13,40.00,50.00,SummerDesignDay
7,1603218.81913428
2,1, 7,21, 0,13,50.00,60.00,SummerDesignDay
7,1621808.50381979
2,1, 7,21, 0,14, 0.00,10.00,SummerDesignDay
7,1607626.78695625
2,1, 7,21, 0,14,10.00,20.00,SummerDesignDay
7,1622857.72681587
2,1, 7,21, 0,14,20.00,30.00,SummerDesignDay
7,1640757.91786184
2,1, 7,21, 0,14,30.00,40.00,SummerDesignDay
7,1661880.00813351
2,1, 7,21, 0,14,40.00,50.00,SummerDesignDay
7,1686240.5940699
2,1, 7,21, 0,14,50.00,60.00,SummerDesignDay
7,1713526.10362678
2,1, 7,21, 0,15, 0.00,10.00,SummerDesignDay
7,1723170.33156679
2,1, 7,21, 0,15,10.00,20.00,SummerDesignDay
7,1743259.39290561
2,1, 7,21, 0,15,20.00,30.00,SummerDesignDay
7,1763890.7938362
2,1, 7,21, 0,15,30.00,40.00,SummerDesignDay
7,1783133.57987393
2,1, 7,21, 0,15,40.00,50.00,SummerDesignDay
7,1783304.42054147
2,1, 7,21, 0,15,50.00,60.00,SummerDesignDay
7,1784036.30675214
2,1, 7,21, 0,16, 0.00,10.00,SummerDesignDay
7,1855328.10605165
2,1, 7,21, 0,16,10.00,20.00,SummerDesignDay
7,1852552.86377495
2,1, 7,21, 0,16,20.00,30.00,SummerDesignDay
7,1849388.3908117
2,1, 7,21, 0,16,30.00,40.00,SummerDesignDay
7,1846211.5581013
2,1, 7,21, 0,16,40.00,50.00,SummerDesignDay
7,1843014.58941827
2,1, 7,21, 0,16,50.00,60.00,SummerDesignDay
7,1839805.26965634
2,1, 7,21, 0,17, 0.00,10.00,SummerDesignDay
7,2063224.94577671
2,1, 7,21, 0,17,10.00,20.00,SummerDesignDay
7,2060135.51957845
2,1, 7,21, 0,17,20.00,30.00,SummerDesignDay
7,2055852.3956605
2,1, 7,21, 0,17,30.00,40.00,SummerDesignDay
7,2051574.82704438
2,1, 7,21, 0,17,40.00,50.00,SummerDesignDay
7,2047262.99227975
2,1, 7,21, 0,17,50.00,60.00,SummerDesignDay
7,2042928.59614226
2,1, 7,21, 0,18, 0.00,10.00,SummerDesignDay
7,2290296.32747215
2,1, 7,21, 0,18,10.00,20.00,SummerDesignDay
7,2286767.91135482
2,1, 7,21, 0,18,20.00,30.00,SummerDesignDay
7,2281602.60199491
2,1, 7,21, 0,18,30.00,40.00,SummerDesignDay
7,2276341.12380937
2,1, 7,21, 0,18,40.00,50.00,SummerDesignDay
7,2270905.99749129
2,1, 7,21, 0,18,50.00,60.00,SummerDesignDay
7,2265469.68081849
2,1, 7,21, 0,19, 0.00,10.00,SummerDesignDay
7,2385556.45724579
2,1, 7,21, 0,19,10.00,20.00,SummerDesignDay
7,2379316.16181671
2,1, 7,21, 0,19,20.00,30.00,SummerDesignDay
7,2367438.14480474
2,1, 7,21, 0,19,30.00,40.00,SummerDesignDay
7,2310648.7830784
2,1, 7,21, 0,19,40.00,50.00,SummerDesignDay
7,2251505.52755957
2,1, 7,21, 0,19,50.00,60.00,SummerDesignDay
7,2189149.72316762
2,1, 7,21, 0,20, 0.00,10.00,SummerDesignDay
7,2189386.35324961
2,1, 7,21, 0,20,10.00,20.00,SummerDesignDay
7,2138050.55438079
2,1, 7,21, 0,20,20.00,30.00,SummerDesignDay
7,2097735.35953506
2,1, 7,21, 0,20,30.00,40.00,SummerDesignDay
7,2061483.6988006
2,1, 7,21, 0,20,40.00,50.00,SummerDesignDay
7,2026877.32309842
2,1, 7,21, 0,20,50.00,60.00,SummerDesignDay
7,1993099.14438431
2,1, 7,21, 0,21, 0.00,10.00,SummerDesignDay
7,1936332.41848898
2,1, 7,21, 0,21,10.00,20.00,SummerDesignDay
7,1905761.71921029
2,1, 7,21, 0,21,20.00,30.00,SummerDesignDay
7,1874910.1720514
2,1, 7,21, 0,21,30.00,40.00,SummerDesignDay
7,1843678.16528323
2,1, 7,21, 0,21,40.00,50.00,SummerDesignDay
7,1811911.11421188
2,1, 7,21, 0,21,50.00,60.00,SummerDesignDay
7,1779374.24711307
2,1, 7,21, 0,22, 0.00,10.00,SummerDesignDay
7,1474092.92777821
2,1, 7,21, 0,22,10.00,20.00,SummerDesignDay
7,1437161.31616483
2,1, 7,21, 0,22,20.00,30.00,SummerDesignDay
7,1394400.3188673
2,1, 7,21, 0,22,30.00,40.00,SummerDesignDay
7,1347717.03183973
2,1, 7,21, 0,22,40.00,50.00,SummerDesignDay
7,1298620.43462499
2,1, 7,21, 0,22,50.00,60.00,SummerDesignDay
7,1262624.2220408
2,1, 7,21, 0,23, 0.00,10.00,SummerDesignDay
7,871503.927421615
2,1, 7,21, 0,23,10.00,20.00,SummerDesignDay
7,847917.44588346
2,1, 7,21, 0,23,20.00,30.00,SummerDesignDay
7,823654.282945867
2,1, 7,21, 0,23,30.00,40.00,SummerDesignDay
7,799877.61435582
2,1, 7,21, 0,23,40.00,50.00,SummerDesignDay
7,788508.432999293
2,1, 7,21, 0,23,50.00,60.00,SummerDesignDay
7,788508.432999293
2,1, 7,21, 0,24, 0.00,10.00,SummerDesignDay
7,558804.66979956
2,1, 7,21, 0,24,10.00,20.00,SummerDesignDay
7,558804.66979956
2,1, 7,21, 0,24,20.00,30.00,SummerDesignDay
7,558804.66979956
2,1, 7,21, 0,24,30.00,40.00,SummerDesignDay
7,558804.66979956
2,1, 7,21, 0,24,40.00,50.00,SummerDesignDay
7,558804.66979956
2,1, 7,21, 0,24,50.00,60.00,SummerDesignDay
7,558804.66979956
1,DENVER CENTENNIAL  GOLDEN   N ANN CLG .4% CONDNS DP=>MDB,  39.74,-105.18,  -7.00,1829.00
2,1, 7,21, 0, 1, 0.00,10.00,SummerDesignDay
7,407732.430911426
2,1, 7,21, 0, 1,10.00,20.00,SummerDesignDay
7,407732.430911426
2,1, 7,21, 0, 1,20.00,30.00,SummerDesignDay
7,407732.430911426
2,1, 7,21, 0, 1,30.00,40.00,SummerDesignDay
7,407732.430911426
2,1, 7,21, 0, 1,40.00,50.00,SummerDesignDay
7,407732.430911426
2,1, 7,21, 0, 1,50.00,60.00,SummerDesignDay
7,407732.430911426
2,1, 7,21, 0, 2, 0.00,10.00,SummerDesignDay
7,378424.781978093
2,1, 7,21, 0, 2,10.00,20.00,SummerDesignDay
7,378424.781978093
2,1, 7,21, 0, 2,20.00,30.00,SummerDesignDay
7,378424.781978093
2,1, 7,21, 0, 2,30.00,40.00,SummerDesignDay
7,378424.781978093
2,1, 7,21, 0, 2,40.00,50.00,SummerDesignDay
7,378424.781978093
2,1, 7,21, 0, 2,50.00,60.00,SummerDesignDay
7,378424.781978093
2,1, 7,21, 0, 3, 0.00,10.00,SummerDesignDay
7,363770.957511426
2,1, 7,21, 0, 3,10.00,20.00,SummerDesignDay
7,363770.957511426
2,1, 7,21, 0, 3,20.00,30.00,SummerDesignDay
7,363770.957511426
2,1, 7,21, 0, 3,30.00,40.00,SummerDesignDay
7,363770.957511426
2,1, 7,21, 0, 3,40.00,50.00,SummerDesignDay
7,363770.957511426
2,1, 7,21, 0, 3,50.00,60.00,SummerDesignDay
7,363770.957511426
2,1, 7,21, 0, 4, 0.00,10.00,SummerDesignDay
7,356444.045278093
2,1, 7,21, 0, 4,10.00,20.00,SummerDesignDay
7,356444.045278093
2,1, 7,21, 0, 4,20.00,30.00,SummerDesignDay
7,356444.045278093
2,1, 7,21, 0, 4,30.00,40.00,SummerDesignDay
7,356444.045278093
2,1, 7,21, 0, 4,40.00,50.00,SummerDesignDay
7,356444.045278093
2,1, 7,21, 0, 4,50.00,60.00,SummerDesignDay
7,356444.045278093
2,1, 7,21, 0, 5, 0.00,10.00,SummerDesignDay
7,428472.922510093
2,1, 7,21, 0, 5,10.00,20.00,SummerDesignDay
7,428472.922510093
2,1, 7,21, 0, 5,20.00,30.00,SummerDesignDay
7,428472.922510093
2,1, 7,21, 0, 5,30.00,40.00,SummerDesignDay
7,428472.922510093
2,1, 7,21, 0, 5,40.00,50.00,SummerDesignDay
7,428472.922510093
2,1, 7,21, 0, 5,50.00,60.00,SummerDesignDay
7,428472.922510093
2,1, 7,21, 0, 6, 0.00,10.00,SummerDesignDay
7,589357.29690196
2,1, 7,21, 0, 6,10.00,20.00,SummerDesignDay
7,589357.29690196
2,1, 7,21, 0, 6,20.00,30.00,SummerDesignDay
7,589357.29690196
2,1, 7,21, 0, 6,30.00,40.00,SummerDesignDay
7,589357.29690196
2,1, 7,21, 0, 6,40.00,50.00,SummerDesignDay
7,589357.29690196
2,1, 7,21, 0, 6,50.00,60.00,SummerDesignDay
7,589357.29690196
2,1, 7,21, 0, 7, 0.00,10.00,SummerDesignDay
7,697564.401074226
2,1, 7,21, 0, 7,10.00,20.00,SummerDesignDay
7,697564.401074226
2,1, 7,21, 0, 7,20.00,30.00,SummerDesignDay
7,697564.401074226
2,1, 7,21, 0, 7,30.00,40.00,SummerDesignDay
7,697564.401074226
2,1, 7,21, 0, 7,40.00,50.00,SummerDesignDay
7,697564.401074226
2,1, 7,21, 0, 7,50.00,60.00,SummerDesignDay
7,697564.401074226
2,1, 7,21, 0, 8, 0.00,10.00,SummerDesignDay
7,749949.125391693
2,1, 7,21, 0, 8,10.00,20.00,SummerDesignDay
7,749949.125391693
2,1, 7,21, 0, 8,20.00,30.00,SummerDesignDay
7,749949.125391693
2,1, 7,21, 0, 8,30.00,40.00,SummerDesignDay
7,749949.125391693
2,1, 7,21, 0, 8,40.00,50.00,SummerDesignDay
7,749949.125391693
2,1, 7,21, 0, 8,50.00,60.00,SummerDesignDay
7,749949.125391693
2,1, 7,21, 0, 9, 0.00,10.00,SummerDesignDay
7,624622.855389426
2,1, 7,21, 0, 9,10.00,20.00,SummerDesignDay
7,624622.855389426
2,1, 7,21, 0, 9,20.00,30.00,SummerDesignDay
7,624622.855389426
2,1, 7,21, 0, 9,30.00,40.00,SummerDesignDay
7,624622.855389426
2,1, 7,21, 0, 9,40.00,50.00,SummerDesignDay
7,624622.855389426
2,1, 7,21, 0, 9,50.00,60.00,SummerDesignDay
7,624622.855389426
2,1, 7,21, 0,10, 0.00,10.00,SummerDesignDay
7,600137.01351196
2,1, 7,21, 0,10,10.00,20.00,SummerDesignDay
7,600137.01351196
2,1, 7,21, 0,10,20.00,30.00,SummerDesignDay
7,600137.01351196
2,1, 7,21, 0,10,30.00,40.00,SummerDesignDay
7,600137.01351196
2,1, 7,21, 0,10,40.00,50.00,SummerDesignDay
7,600137.01351196
2,1, 7,21, 0,10,50.00,60.00,SummerDesignDay
7,600137.01351196
2,1, 7,21, 0,11, 0.00,10.00,SummerDesignDay
7,614790.837978626
2,1, 7,21, 0,11,10.00,20.00,SummerDesignDay
7,614790.837978626
2,1, 7,21, 0,11,20.00,30.00,SummerDesignDay
7,614790.837978626
2,1, 7,21, 0,11,30.00,40.00,SummerDesignDay
7,614790.837978626
2,1, 7,21, 0,11,40.00,50.00,SummerDesignDay
7,614790.837978626
2,1, 7,21, 0,11,50.00,60.00,SummerDesignDay
7,614790.837978626
2,1, 7,21, 0,12, 0.00,10.00,SummerDesignDay
7,622117.750211959
2,1, 7,21, 0,12,10.00,20.00,SummerDesignDay
7,622117.750211959
2,1, 7,21, 0,12,20.00,30.00,SummerDesignDay
7,622117.750211959
2,1, 7,21, 0,12,30.00,40.00,SummerDesignDay
7,622117.750211959
2,1, 7,21, 0,12,40.00,50.00,SummerDesignDay
7,622117.750211959
2,1, 7,21, 0,12,50.00,60.00,SummerDesignDay
7,622117.750211959
2,1, 7,21, 0,13, 0.00,10.00,SummerDesignDay
7,614790.837978626
2,1, 7,21, 0,13,10.00,20.00,SummerDesignDay
7,614790.837978626
2,1, 7,21, 0,13,20.00,30.00,SummerDesignDay
7,614790.837978626
2,1, 7,21, 0,13,30.00,40.00,SummerDesignDay
7,614790.837978626
2,1, 7,21, 0,13,40.00,50.00,SummerDesignDay
7,614790.837978626
2,1, 7,21, 0,13,50.00,60.00,SummerDesignDay
7,614790.837978626
2,1, 7,21, 0,14, 0.00,10.00,SummerDesignDay
7,592810.101278626
2,1, 7,21, 0,14,10.00,20.00,SummerDesignDay
7,592810.101278626
2,1, 7,21, 0,14,20.00,30.00,SummerDesignDay
7,592810.101278626
2,1, 7,21, 0,14,30.00,40.00,SummerDesignDay
7,592810.101278626
2,1, 7,21, 0,14,40.00,50.00,SummerDesignDay
7,592810.101278626
2,1, 7,21, 0,14,50.00,60.00,SummerDesignDay
7,592810.101278626
2,1, 7,21, 0,15, 0.00,10.00,SummerDesignDay
7,587242.75247772
2,1, 7,21, 0,15,10.00,20.00,SummerDesignDay
7,586826.078437359
2,1, 7,21, 0,15,20.00,30.00,SummerDesignDay
7,586995.65967766
2,1, 7,21, 0,15,30.00,40.00,SummerDesignDay
7,587015.300186443
2,1, 7,21, 0,15,40.00,50.00,SummerDesignDay
7,587004.883838489
2,1, 7,21, 0,15,50.00,60.00,SummerDesignDay
7,586939.491007609
2,1, 7,21, 0,16, 0.00,10.00,SummerDesignDay
7,661020.614713774
2,1, 7,21, 0,16,10.00,20.00,SummerDesignDay
7,661169.316495927
2,1, 7,21, 0,16,20.00,30.00,SummerDesignDay
7,659684.861738493
2,1, 7,21, 0,16,30.00,40.00,SummerDesignDay
7,659684.861738493
2,1, 7,21, 0,16,40.00,50.00,SummerDesignDay
7,659684.861738493
2,1, 7,21, 0,16,50.00,60.00,SummerDesignDay
7,659684.861738493
2,1, 7,21, 0,17, 0.00,10.00,SummerDesignDay
7,887463.878497293
2,1, 7,21, 0,17,10.00,20.00,SummerDesignDay
7,889785.857380238
2,1, 7,21, 0,17,20.00,30.00,SummerDesignDay
7,887463.878497293
2,1, 7,21, 0,17,30.00,40.00,SummerDesignDay
7,887463.878497293
2,1, 7,21, 0,17,40.00,50.00,SummerDesignDay
7,887463.878497293
2,1, 7,21, 0,17,50.00,60.00,SummerDesignDay
7,887463.878497293
2,1, 7,21, 0,18, 0.00,10.00,SummerDesignDay
7,1140244.71708116
2,1, 7,21, 0,18,10.00,20.00,SummerDesignDay
7,1142422.99302753
2,1, 7,21, 0,18,20.00,30.00,SummerDesignDay
7,1140244.71708116
2,1, 7,21, 0,18,30.00,40.00,SummerDesignDay
7,1140244.71708116
2,1, 7,21, 0,18,40.00,50.00,SummerDesignDay
7,1140244.71708116
2,1, 7,21, 0,18,50.00,60.00,SummerDesignDay
7,1140244.71708116
2,1, 7,21, 0,19, 0.00,10.00,SummerDesignDay
7,1268095.97416796
2,1, 7,21, 0,19,10.00,20.00,SummerDesignDay
7,1268095.97416796
2,1, 7,21, 0,19,20.00,30.00,SummerDesignDay
7,1268095.97416796
2,1, 7,21, 0,19,30.00,40.00,SummerDesignDay
7,1268095.97416796
2,1, 7,21, 0,19,40.00,50.00,SummerDesignDay
7,1268095.97416796
2,1, 7,21, 0,19,50.00,60.00,SummerDesignDay
7,1268095.97416796
2,1, 7,21, 0,20, 0.00,10.00,SummerDesignDay
7,1311045.36957983
2,1, 7,21, 0,20,10.00,20.00,SummerDesignDay
7,1311045.36957983
2,1, 7,21, 0,20,20.00,30.00,SummerDesignDay
7,1311045.36957983
2,1, 7,21, 0,20,30.00,40.00,SummerDesignDay
7,1311045.36957983
2,1, 7,21, 0,20,40.00,50.00,SummerDesignDay
7,1311045.36957983
2,1, 7,21, 0,20,50.00,60.00,SummerDesignDay
7,1311045.36957983
2,1, 7,21, 0,21, 0.00,10.00,SummerDesignDay
7,1290141.08965689
2,1, 7,21, 0,21,10.00,20.00,SummerDesignDay
7,1290141.08965689
2,1, 7,21, 0,21,20.00,30.00,SummerDesignDay
7,1290141.08965689
2,1, 7,21, 0,21,30.00,40.00,SummerDesignDay
7,1290141.08965689
2,1, 7,21, 0,21,40.00,50.00,SummerDesignDay
7,1290141.08965689
2,1, 7,21, 0,21,50.00,60.00,SummerDesignDay
7,1290141.08965689
2,1, 7,21, 0,22, 0.00,10.00,SummerDesignDay
7,1075959.32249476
2,1, 7,21, 0,22,10.00,20.00,SummerDesignDay
7,1075959.32249476
2,1, 7,21, 0,22,20.00,30.00,SummerDesignDay
7,1075959.32249476
2,1, 7,21, 0,22,30.00,40.00,SummerDesignDay
7,1075959.32249476
2,1, 7,21, 0,22,40.00,50.00,SummerDesignDay
7,1075959.32249476
2,1, 7,21, 0,22,50.00,60.00,SummerDesignDay
7,1075959.32249476
2,1, 7,21, 0,23, 0.00,10.00,SummerDesignDay
7,788508.432999293
2,1, 7,21, 0,23,10.00,20.00,SummerDesignDay
7,788508.432999293
2,1, 7,21, 0,23,20.00,30.00,SummerDesignDay
7,788508.432999293
2,1, 7,21, 0,23,30.00,40.00,SummerDesignDay
7,788508.432999293
2,1, 7,21, 0,23,40.00,50.00,SummerDesignDay
7,788508.432999293
2,1, 7,21, 0,23,50.00,60.00,SummerDesignDay
7,788508.432999293
2,1, 7,21, 0,24, 0.00,10.00,SummerDesignDay
7,558804.66979956
2,1, 7,21, 0,24,10.00,20.00,SummerDesignDay
7,558804.66979956
2,1, 7,21, 0,24,20.00,30.00,SummerDesignDay
7,558804.66979956
2,1, 7,21, 0,24,30.00,40.00,SummerDesignDay
7,558804.66979956
2,1, 7,21, 0,24,40.00,50.00,SummerDesignDay
7,558804.66979956
2,1, 7,21, 0,24,50.00,60.00,SummerDesignDay
7,558804.66979956
1,DENVER CENTENNIAL  GOLDEN   N ANN CLG .4% CONDNS ENTH=>MDB,  39.74,-105.18,  -7.00,1829.00
2,1, 7,21, 0, 1, 0.00,10.00,SummerDesignDay
7,407732.430911426
2,1, 7,21, 0, 1,10.00,20.00,SummerDesignDay
7,407732.430911426
2,1, 7,21, 0, 1,20.00,30.00,SummerDesignDay
7,407732.430911426
2,1, 7,21, 0, 1,30.00,40.00,SummerDesignDay
7,407732.430911426
2,1, 7,21, 0, 1,40.00,50.00,SummerDesignDay
7,407732.430911426
2,1, 7,21, 0, 1,50.00,60.00,SummerDesignDay
7,407732.430911426
2,1, 7,21, 0, 2, 0.00,10.00,SummerDesignDay
7,378424.781978093
2,1, 7,21, 0, 2,10.00,20.00,SummerDesignDay
7,378424.781978093
2,1, 7,21, 0, 2,20.00,30.00,SummerDesignDay
7,378424.781978093
2,1, 7,21, 0, 2,30.00,40.00,SummerDesignDay
7,378424.781978093
2,1, 7,21, 0, 2,40.00,50.00,SummerDesignDay
7,378424.781978093
2,1, 7,21, 0, 2,50.00,60.00,SummerDesignDay
7,378424.781978093
2,1, 7,21, 0, 3, 0.00,10.00,SummerDesignDay
7,363770.957511426
2,1, 7,21, 0, 3,10.00,20.00,SummerDesignDay
7,363770.957511426
2,1, 7,21, 0, 3,20.00,30.00,SummerDesignDay
7,363770.957511426
2,1, 7,21, 0, 3,30.00,40.00,SummerDesignDay
7,363770.957511426
2,1, 7,21, 0, 3,40.00,50.00,SummerDesignDay
7,363770.957511426
2,1, 7,21, 0, 3,50.00,60.00,SummerDesignDay
7,363770.957511426
2,1, 7,21, 0, 4, 0.00,10.00,SummerDesignDay
7,356444.045278093
2,1, 7,21, 0, 4,10.00,20.00,SummerDesignDay
7,356444.045278093
2,1, 7,21, 0, 4,20.00,30.00,SummerDesignDay
7,356444.045278093
2,1, 7,21, 0, 4,30.00,40.00,SummerDesignDay
7,356444.045278093
2,1, 7,21, 0, 4,40.00,50.00,SummerDesignDay
7,356444.045278093
2,1, 7,21, 0, 4,50.00,60.00,SummerDesignDay
7,356444.045278093
2,1, 7,21, 0, 5, 0.00,10.00,SummerDesignDay
7,428472.922510093
2,1, 7,21, 0, 5,10.00,20.00,SummerDesignDay
7,428472.922510093
2,1, 7,21, 0, 5,20.00,30.00,SummerDesignDay
7,428472.922510093
2,1, 7,21, 0, 5,30.00,40.00,SummerDesignDay
7,428472.922510093
2,1, 7,21, 0, 5,40.00,50.00,SummerDesignDay
7,428472.922510093
2,1, 7,21, 0, 5,50.00,60.00,SummerDesignDay
7,428472.922510093
2,1, 7,21, 0, 6, 0.00,10.00,SummerDesignDay
7,589357.29690196
2,1, 7,21, 0, 6,10.00,20.00,SummerDesignDay
7,589357.29690196
2,1, 7,21, 0, 6,20.00,30.00,SummerDesignDay
7,589357.29690196
2,1, 7,21, 0, 6,30.00,40.00,SummerDesignDay
7,589357.29690196
2,1, 7,21, 0, 6,40.00,50.00,SummerDesignDay
7,589357.29690196
2,1, 7,21, 0, 6,50.00,60.00,SummerDesignDay
7,589357.29690196
2,1, 7,21, 0, 7, 0.00,10.00,SummerDesignDay
7,697564.401074226
2,1, 7,21, 0, 7,10.00,20.00,SummerDesignDay
7,697564.401074226
2,1, 7,21, 0, 7,20.00,30.00,SummerDesignDay
7,697564.401074226
2,1, 7,21, 0, 7,30.00,40.00,SummerDesignDay
7,697564.401074226
2,1, 7,21, 0, 7,40.00,50.00,SummerDesignDay
7,697564.401074226
2,1, 7,21, 0, 7,50.00,60.00,SummerDesignDay
7,697564.401074226
2,1, 7,21, 0, 8, 0.00,10.00,SummerDesignDay
7,749949.125391693
2,1, 7,21, 0, 8,10.00,20.00,SummerDesignDay
7,749949.125391693
2,1, 7,21, 0, 8,20.00,30.00,SummerDesignDay
7,749949.125391693
2,1, 7,21, 0, 8,30.00,40.00,SummerDesignDay
7,749949.125391693
2,1, 7,21, 0, 8,40.00,50.00,SummerDesignDay
7,749949.125391693
2,1, 7,21, 0, 8,50.00,60.00,SummerDesignDay
7,749949.125391693
2,1, 7,21, 0, 9, 0.00,10.00,SummerDesignDay
7,624622.855389426
2,1, 7,21, 0, 9,10.00,20.00,SummerDesignDay
7,624622.855389426
2,1, 7,21, 0, 9,20.00,30.00,SummerDesignDay
7,624622.855389426
2,1, 7,21, 0, 9,30.00,40.00,SummerDesignDay
7,626944.529980607
2,1, 7,21, 0, 9,40.00,50.00,SummerDesignDay
7,627218.047564816
2,1, 7,21, 0, 9,50.00,60.00,SummerDesignDay
7,627308.057728259
2,1, 7,21, 0,10, 0.00,10.00,SummerDesignDay
7,602878.726007719
2,1, 7,21, 0,10,10.00,20.00,SummerDesignDay
7,602138.128071661
2,1, 7,21, 0,10,20.00,30.00,SummerDesignDay
7,602492.500796216
2,1, 7,21, 0,10,30.00,40.00,SummerDesignDay
7,602531.022888882
2,1, 7,21, 0,10,40.00,50.00,SummerDesignDay
7,602518.820886459
2,1, 7,21, 0,10,50.00,60.00,SummerDesignDay
7,602411.986694593
2,1, 7,21, 0,11, 0.00,10.00,SummerDesignDay
7,616932.883229262
2,1, 7,21, 0,11,10.00,20.00,SummerDesignDay
7,616864.028364629
2,1, 7,21, 0,11,20.00,30.00,SummerDesignDay
7,616744.437482443
2,1, 7,21, 0,11,30.00,40.00,SummerDesignDay
7,616716.612548909
2,1, 7,21, 0,11,40.00,50.00,SummerDesignDay
7,616765.767617669
2,1, 7,21, 0,11,50.00,60.00,SummerDesignDay
7,616866.842328919
2,1, 7,21, 0,12, 0.00,10.00,SummerDesignDay
7,624329.044288298
2,1, 7,21, 0,12,10.00,20.00,SummerDesignDay
7,624114.710086933
2,1, 7,21, 0,12,20.00,30.00,SummerDesignDay
7,624102.216682033
2,1, 7,21, 0,12,30.00,40.00,SummerDesignDay
7,734011.312585284
2,1, 7,21, 0,12,40.00,50.00,SummerDesignDay
7,867722.622320713
2,1, 7,21, 0,12,50.00,60.00,SummerDesignDay
7,958097.484084657
2,1, 7,21, 0,13, 0.00,10.00,SummerDesignDay
7,1011187.1017007
2,1, 7,21, 0,13,10.00,20.00,SummerDesignDay
7,1072251.96324962
2,1, 7,21, 0,13,20.00,30.00,SummerDesignDay
7,1125866.64710339
2,1, 7,21, 0,13,30.00,40.00,SummerDesignDay
7,1170126.16963782
2,1, 7,21, 0,13,40.00,50.00,SummerDesignDay
7,1208517.40124002
2,1, 7,21, 0,13,50.00,60.00,SummerDesignDay
7,1243530.6900321
2,1, 7,21, 0,14, 0.00,10.00,SummerDesignDay
7,1238936.52949445
2,1, 7,21, 0,14,10.00,20.00,SummerDesignDay
7,1264421.2746728
2,1, 7,21, 0,14,20.00,30.00,SummerDesignDay
7,1289149.33812185
2,1, 7,21, 0,14,30.00,40.00,SummerDesignDay
7,1314410.54545766
2,1, 7,21, 0,14,40.00,50.00,SummerDesignDay
7,1342067.69935353
2,1, 7,21, 0,14,50.00,60.00,SummerDesignDay
7,1371343.46636242
2,1, 7,21, 0,15, 0.00,10.00,SummerDesignDay
7,1381604.82427182
2,1, 7,21, 0,15,10.00,20.00,SummerDesignDay
7,1402062.68250499
2,1, 7,21, 0,15,20.00,30.00,SummerDesignDay
7,1421908.61928696
2,1, 7,21, 0,15,30.00,40.00,SummerDesignDay
7,1440281.81901505
2,1, 7,21, 0,15,40.00,50.00,SummerDesignDay
7,1458686.84409365
2,1, 7,21, 0,15,50.00,60.00,SummerDesignDay
7,1475850.94669361
2,1, 7,21, 0,16, 0.00,10.00,SummerDesignDay
7,1570386.39718139
2,1, 7,21, 0,16,10.00,20.00,SummerDesignDay
7,1573275.86398246
2,1, 7,21, 0,16,20.00,30.00,SummerDesignDay
7,1576214.47277267
2,1, 7,21, 0,16,30.00,40.00,SummerDesignDay
7,1577226.05806263
2,1, 7,21, 0,16,40.00,50.00,SummerDesignDay
7,1576808.72164164
2,1, 7,21, 0,16,50.00,60.00,SummerDesignDay
7,1575379.05484037
2,1, 7,21, 0,17, 0.00,10.00,SummerDesignDay
7,1844470.74510834
2,1, 7,21, 0,17,10.00,20.00,SummerDesignDay
7,1837146.09563872
2,1, 7,21, 0,17,20.00,30.00,SummerDesignDay
7,1828758.42508787
2,1, 7,21, 0,17,30.00,40.00,SummerDesignDay
7,1819018.11692587
2,1, 7,21, 0,17,40.00,50.00,SummerDesignDay
7,1807204.84564275
2,1, 7,21, 0,17,50.00,60.00,SummerDesignDay
7,1793078.53075732
2,1, 7,21, 0,18, 0.00,10.00,SummerDesignDay
7,2085292.76395595
2,1, 7,21, 0,18,10.00,20.00,SummerDesignDay
7,2062916.65943746
2,1, 7,21, 0,18,20.00,30.00,SummerDesignDay
7,2038431.36297487
2,1, 7,21, 0,18,30.00,40.00,SummerDesignDay
7,2009264.64917961
2,1, 7,21, 0,18,40.00,50.00,SummerDesignDay
7,1979274.07676838
2,1, 7,21, 0,18,50.00,60.00,SummerDesignDay
7,1947704.79432541
2,1, 7,21, 0,19, 0.00,10.00,SummerDesignDay
7,2074437.79296048
2,1, 7,21, 0,19,10.00,20.00,SummerDesignDay
7,2030091.46946609
2,1, 7,21, 0,19,20.00,30.00,SummerDesignDay
7,1981140.95256551
2,1, 7,21, 0,19,30.00,40.00,SummerDesignDay
7,1926229.43536596
2,1, 7,21, 0,19,40.00,50.00,SummerDesignDay
7,1851316.13797232
2,1, 7,21, 0,19,50.00,60.00,SummerDesignDay
7,1772272.14780634
2,1, 7,21, 0,20, 0.00,10.00,SummerDesignDay
7,1745983.74050203
2,1, 7,21, 0,20,10.00,20.00,SummerDesignDay
7,1636744.4958819
2,1, 7,21, 0,20,20.00,30.00,SummerDesignDay
7,1545752.13382613
2,1, 7,21, 0,20,30.00,40.00,SummerDesignDay
7,1441311.55752736
2,1, 7,21, 0,20,40.00,50.00,SummerDesignDay
7,1352154.14168238
2,1, 7,21, 0,20,50.00,60.00,SummerDesignDay
7,1312261.04067863
2,1, 7,21, 0,21, 0.00,10.00,SummerDesignDay
7,1290141.08965689
2,1, 7,21, 0,21,10.00,20.00,SummerDesignDay
7,1290141.08965689
2,1, 7,21, 0,21,20.00,30.00,SummerDesignDay
7,1290141.08965689
2,1, 7,21, 0,21,30.00,40.00,SummerDesignDay
7,1290141.08965689
2,1, 7,21, 0,21,40.00,50.00,SummerDesignDay
7,1290141.08965689
2,1, 7,21, 0,21,50.00,60.00,SummerDesignDay
7,1290141.08965689
2,1, 7,21, 0,22, 0.00,10.00,SummerDesignDay
7,1075959.32249476
2,1, 7,21, 0,22,10.00,20.00,SummerDesignDay
7,1075959.32249476
2,1, 7,21, 0,22,20.00,30.00,SummerDesignDay
7,1075959.32249476
2,1, 7,21, 0,22,30.00,40.00,SummerDesignDay
7,1075959.32249476
2,1, 7,21, 0,22,40.00,50.00,SummerDesignDay
7,1075959.32249476
2,1, 7,21, 0,22,50.00,60.00,SummerDesignDay
7,1075959.32249476
2,1, 7,21, 0,23, 0.00,10.00,SummerDesignDay
7,788508.432999293
2,1, 7,21, 0,23,10.00,20.00,SummerDesignDay
7,788508.432999293
2,1, 7,21, 0,23,20.00,30.00,SummerDesignDay
7,788508.432999293
2,1, 7,21, 0,23,30.00,40.00,SummerDesignDay
7,788508.432999293
2,1, 7,21, 0,23,40.00,50.00,SummerDesignDay
7,788508.432999293
2,1, 7,21, 0,23,50.00,60.00,SummerDesignDay
7,788508.432999293
2,1, 7,21, 0,24, 0.00,10.00,SummerDesignDay
7,558804.66979956
2,1, 7,21, 0,24,10.00,20.00,SummerDesignDay
7,558804.66979956
2,1, 7,21, 0,24,20.00,30.00,SummerDesignDay
7,558804.66979956
2,1, 7,21, 0,24,30.00,40.00,SummerDesignDay
7,558804.66979956
2,1, 7,21, 0,24,40.00,50.00,SummerDesignDay
7,558804.66979956
2,1, 7,21, 0,24,50.00,60.00,SummerDesignDay
7,558804.66979956
1,DENVER CENTENNIAL  GOLDEN   N ANN CLG .4% CONDNS WB=>MDB,  39.74,-105.18,  -7.00,1829.00
2,1, 7,21, 0, 1, 0.00,10.00,SummerDesignDay
7,407732.430911426
2,1, 7,21, 0, 1,10.00,20.00,SummerDesignDay
7,407732.430911426
2,1, 7,21, 0, 1,20.00,30.00,SummerDesignDay
7,407732.430911426
2,1, 7,21, 0, 1,30.00,40.00,SummerDesignDay
7,407732.430911426
2,1, 7,21, 0, 1,40.00,50.00,SummerDesignDay
7,407732.430911426
2,1, 7,21, 0, 1,50.00,60.00,SummerDesignDay
7,407732.430911426
2,1, 7,21, 0, 2, 0.00,10.00,SummerDesignDay
7,378424.781978093
2,1, 7,21, 0, 2,10.00,20.00,SummerDesignDay
7,378424.781978093
2,1, 7,21, 0, 2,20.00,30.00,SummerDesignDay
7,378424.781978093
2,1, 7,21, 0, 2,30.00,40.00,SummerDesignDay
7,378424.781978093
2,1, 7,21, 0, 2,40.00,50.00,SummerDesignDay
7,378424.781978093
2,1, 7,21, 0, 2,50.00,60.00,SummerDesignDay
7,378424.781978093
2,1, 7,21, 0, 3, 0.00,10.00,SummerDesignDay
7,363770.957511426
2,1, 7,21, 0, 3,10.00,20.00,SummerDesignDay
7,363770.957511426
2,1, 7,21, 0, 3,20.00,30.00,SummerDesignDay
7,363770.957511426
2,1, 7,21, 0, 3,30.00,40.00,SummerDesignDay
7,363770.957511426
2,1, 7,21, 0, 3,40.00,50.00,SummerDesignDay
7,363770.957511426
2,1, 7,21, 0, 3,50.00,60.00,SummerDesignDay
7,363770.957511426
2,1, 7,21, 0, 4, 0.00,10.00,SummerDesignDay
7,356444.045278093
2,1, 7,21, 0, 4,10.00,20.00,SummerDesignDay
7,356444.045278093
2,1, 7,21, 0, 4,20.00,30.00,SummerDesignDay
7,356444.045278093
2,1, 7,21, 0, 4,30.00,40.00,SummerDesignDay
7,356444.045278093
2,1, 7,21, 0, 4,40.00,50.00,SummerDesignDay
7,356444.045278093
2,1, 7,21, 0, 4,50.00,60.00,SummerDesignDay
7,356444.045278093
2,1, 7,21, 0, 5, 0.00,10.00,SummerDesignDay
7,428472.922510093
2,1, 7,21, 0, 5,10.00,20.00,SummerDesignDay
7,428472.922510093
2,1, 7,21, 0, 5,20.00,30.00,SummerDesignDay
7,428472.922510093
2,1, 7,21, 0, 5,30.00,40.00,SummerDesignDay
7,428472.922510093
2,1, 7,21, 0, 5,40.00,50.00,SummerDesignDay
7,428472.922510093