Program Version,EnergyPlus, Version 8.2.0-8397c2e30b, YMD=2015.06.19 09:33
1,5,Environment Title[],Latitude[deg],Longitude[deg],Time Zone[],Elevation[m]
2,6,Day of Simulation[],Month[],Day of Month[],DST Indicator[1=yes 0=no],Hour[],StartMinute[],EndMinute[],DayType
3,3,Cumulative Day of Simulation[],Month[],Day of Month[],DST Indicator[1=yes 0=no],DayType  ! When Daily Report Variables Requested
4,2,Cumulative Days of Simulation[],Month[]  ! When Monthly Report Variables Requested
5,1,Cumulative Days of Simulation[] ! When Run Period Report Variables Requested
7,1,Electricity:Facility [J] !TimeStep
End of Data Dictionary
1,DENVER CENTENNIAL  GOLDEN   N ANN CLG .4% CONDNS DB=>MWB,  39.74,-105.18,  -7.00,1829.00
2,1, 7,21, 0, 1, 0.00,10.00,SummerDesignDay
7,873997.270824218
2,1, 7,21, 0, 1,10.00,20.00,SummerDesignDay
7,873997.270824218
2,1, 7,21, 0, 1,20.00,30.00,SummerDesignDay
7,873997.270824218
2,1, 7,21, 0, 1,30.00,40.00,SummerDesignDay
7,873997.270824218
2,1, 7,21, 0, 1,40.00,50.00,SummerDesignDay
7,873997.270824218
2,1, 7,21, 0, 1,50.00,60.00,SummerDesignDay
7,873997.270824218
2,1, 7,21, 0, 2, 0.00,10.00,SummerDesignDay
7,844689.621890885
2,1, 7,21, 0, 2,10.00,20.00,SummerDesignDay
7,844689.621890885
2,1, 7,21, 0, 2,20.00,30.00,SummerDesignDay
7,844689.621890885
2,1, 7,21, 0, 2,30.00,40.00,SummerDesignDay
7,844689.621890885
2,1, 7,21, 0, 2,40.00,50.00,SummerDesignDay
7,844689.621890885
2,1, 7,21, 0, 2,50.00,60.00,SummerDesignDay
7,844689.621890885
2,1, 7,21, 0, 3, 0.00,10.00,SummerDesignDay
7,830035.797424218
2,1, 7,21, 0, 3,10.00,20.00,SummerDesignDay
7,830035.797424218
2,1, 7,21, 0, 3,20.00,30.00,SummerDesignDay
7,830035.797424218
2,1, 7,21, 0, 3,30.00,40.00,SummerDesignDay
7,830035.797424218
2,1, 7,21, 0, 3,40.00,50.00,SummerDesignDay
7,830035.797424218
2,1, 7,21, 0, 3,50.00,60.00,SummerDesignDay
7,830035.797424218
2,1, 7,21, 0, 4, 0.00,10.00,SummerDesignDay
7,822708.885190885
2,1, 7,21, 0, 4,10.00,20.00,SummerDesignDay
7,822708.885190885
2,1, 7,21, 0, 4,20.00,30.00,SummerDesignDay
7,822708.885190885
2,1, 7,21, 0, 4,30.00,40.00,SummerDesignDay
7,822708.885190885
2,1, 7,21, 0, 4,40.00,50.00,SummerDesignDay
7,822708.885190885
2,1, 7,21, 0, 4,50.00,60.00,SummerDesignDay
7,822708.885190885
2,1, 7,21, 0, 5, 0.00,10.00,SummerDesignDay
7,894737.762422885
2,1, 7,21, 0, 5,10.00,20.00,SummerDesignDay
7,894737.762422885
2,1, 7,21, 0, 5,20.00,30.00,SummerDesignDay
7,894737.762422885
2,1, 7,21, 0, 5,30.00,40.00,SummerDesignDay
7,894737.762422885
2,1, 7,21, 0, 5,40.00,50.00,SummerDesignDay
7,894737.762422885
2,1, 7,21, 0, 5,50.00,60.00,SummerDesignDay
7,894737.762422885
2,1, 7,21, 0, 6, 0.00,10.00,SummerDesignDay
7,1055622.13681475
2,1, 7,21, 0, 6,10.00,20.00,SummerDesignDay
7,1055622.13681475
2,1, 7,21, 0, 6,20.00,30.00,SummerDesignDay
7,1055622.13681475
2,1, 7,21, 0, 6,30.00,40.00,SummerDesignDay
7,1055622.13681475
2,1, 7,21, 0, 6,40.00,50.00,SummerDesignDay
7,1055622.13681475
2,1, 7,21, 0, 6,50.00,60.00,SummerDesignDay
7,1055622.13681475
2,1, 7,21, 0, 7, 0.00,10.00,SummerDesignDay
7,1163829.24098702
2,1, 7,21, 0, 7,10.00,20.00,SummerDesignDay
7,1163829.24098702
2,1, 7,21, 0, 7,20.00,30.00,SummerDesignDay
7,1163829.24098702
2,1, 7,21, 0, 7,30.00,40.00,SummerDesignDay
7,1163829.24098702
2,1, 7,21, 0, 7,40.00,50.00,SummerDesignDay
7,1163829.24098702
2,1, 7,21, 0, 7,50.00,60.00,SummerDesignDay
7,1163829.24098702
2,1, 7,21, 0, 8, 0.00,10.00,SummerDesignDay
7,1216213.96530448
2,1, 7,21, 0, 8,10.00,20.00,SummerDesignDay
7,1216213.96530448
2,1, 7,21, 0, 8,20.00,30.00,SummerDesignDay
7,1216213.96530448
2,1, 7,21, 0, 8,30.00,40.00,SummerDesignDay
7,1216213.96530448
2,1, 7,21, 0, 8,40.00,50.00,SummerDesignDay
7,1216213.96530448
2,1, 7,21, 0, 8,50.00,60.00,SummerDesignDay
7,1216213.96530448
2,1, 7,21, 0, 9, 0.00,10.00,SummerDesignDay
7,1090887.69530222
2,1, 7,21, 0, 9,10.00,20.00,SummerDesignDay
7,1207314.72826875
2,1, 7,21, 0, 9,20.00,30.00,SummerDesignDay
7,1327997.24396887
2,1, 7,21, 0, 9,30.00,40.00,SummerDesignDay
7,1439461.49061939
2,1, 7,21, 0, 9,40.00,50.00,SummerDesignDay
7,1545035.48397217
2,1, 7,21, 0, 9,50.00,60.00,SummerDesignDay
7,1596167.36453971
2,1, 7,21, 0,10, 0.00,10.00,SummerDesignDay
7,1600493.5137378
2,1, 7,21, 0,10,10.00,20.00,SummerDesignDay
7,1641263.05438036
2,1, 7,21, 0,10,20.00,30.00,SummerDesignDay
7,1678083.36830685
2,1, 7,21, 0,10,30.00,40.00,SummerDesignDay
7,1714199.09249787
2,1, 7,21, 0,10,40.00,50.00,SummerDesignDay
7,1747931.54378811
2,1, 7,21, 0,10,50.00,60.00,SummerDesignDay
7,1780305.42221019
2,1, 7,21, 0,11, 0.00,10.00,SummerDesignDay
7,1826430.72497921
2,1, 7,21, 0,11,10.00,20.00,SummerDesignDay
7,1854221.96449333
2,1, 7,21, 0,11,20.00,30.00,SummerDesignDay
7,1883785.04318828
2,1, 7,21, 0,11,30.00,40.00,SummerDesignDay
7,1915543.09238707
2,1, 7,21, 0,11,40.00,50.00,SummerDesignDay
7,1949627.35482701
2,1, 7,21, 0,11,50.00,60.00,SummerDesignDay
7,1986306.90498579
2,1, 7,21, 0,12, 0.00,10.00,SummerDesignDay
7,2024046.61356649
2,1, 7,21, 0,12,10.00,20.00,SummerDesignDay
7,2054417.62205934
2,1, 7,21, 0,12,20.00,30.00,SummerDesignDay
7,2085539.06106015
2,1, 7,21, 0,12,30.00,40.00,SummerDesignDay
7,2115473.03832573
2,1, 7,21, 0,12,40.00,50.00,SummerDesignDay
7,2142891.09304152
2,1, 7,21, 0,12,50.00,60.00,SummerDesignDay
7,2168185.730282
2,1, 7,21, 0,13, 0.00,10.00,SummerDesignDay
7,2180957.73447225
2,1, 7,21, 0,13,10.00,20.00,SummerDesignDay
7,2206045.90028427
2,1, 7,21, 0,13,20.00,30.00,SummerDesignDay
7,2230675.73076565
2,1, 7,21, 0,13,30.00,40.00,SummerDesignDay
7,2253533.42107408
2,1, 7,21, 0,13,40.00,50.00,SummerDesignDay
7,2274690.39738909
2,1, 7,21, 0,13,50.00,60.00,SummerDesignDay
7,2295466.48470924
2,1, 7,21, 0,14, 0.00,10.00,SummerDesignDay
7,2282753.18273385
2,1, 7,21, 0,14,10.00,20.00,SummerDesignDay
7,2299822.98470508
2,1, 7,21, 0,14,20.00,30.00,SummerDesignDay
7,2319408.21248041
2,1, 7,21, 0,14,30.00,40.00,SummerDesignDay
7,2342239.30618898
2,1, 7,21, 0,14,40.00,50.00,SummerDesignDay
7,2368282.30291244
2,1, 7,21, 0,14,50.00,60.00,SummerDesignDay
7,2397198.81677006
2,1, 7,21, 0,15, 0.00,10.00,SummerDesignDay
7,2407459.37689799
2,1, 7,21, 0,15,10.00,20.00,SummerDesignDay
7,2428180.17810915
2,1, 7,21, 0,15,20.00,30.00,SummerDesignDay
7,2449339.20579444
2,1, 7,21, 0,15,30.00,40.00,SummerDesignDay
7,2470491.34953036
2,1, 7,21, 0,15,40.00,50.00,SummerDesignDay
7,2491007.75050422
2,1, 7,21, 0,15,50.00,60.00,SummerDesignDay
7,2510327.30036093
2,1, 7,21, 0,16, 0.00,10.00,SummerDesignDay
7,2604341.7829037
2,1, 7,21, 0,16,10.00,20.00,SummerDesignDay
7,2605463.15732409
2,1, 7,21, 0,16,20.00,30.00,SummerDesignDay
7,2606126.46569227
2,1, 7,21, 0,16,30.00,40.00,SummerDesignDay
7,2605733.36471528
2,1, 7,21, 0,16,40.00,50.00,SummerDesignDay
7,2604315.74961071
2,1, 7,21, 0,16,50.00,60.00,SummerDesignDay
7,2602048.98453886
2,1, 7,21, 0,17, 0.00,10.00,SummerDesignDay
7,2871490.76863907
2,1, 7,21, 0,17,10.00,20.00,SummerDesignDay
7,2861196.67898164
2,1, 7,21, 0,17,20.00,30.00,SummerDesignDay
7,2851149.62763768
2,1, 7,21, 0,17,30.00,40.00,SummerDesignDay
7,2839919.02509134
2,1, 7,21, 0,17,40.00,50.00,SummerDesignDay
7,2827035.344538
2,1, 7,21, 0,17,50.00,60.00,SummerDesignDay
7,2812079.001897
2,1, 7,21, 0,18, 0.00,10.00,SummerDesignDay
7,3104868.88720287
2,1, 7,21, 0,18,10.00,20.00,SummerDesignDay
7,3079401.58444653
2,1, 7,21, 0,18,20.00,30.00,SummerDesignDay
7,3053426.61673698
2,1, 7,21, 0,18,30.00,40.00,SummerDesignDay
7,3021906.90789058
2,1, 7,21, 0,18,40.00,50.00,SummerDesignDay
7,2990381.45648743
2,1, 7,21, 0,18,50.00,60.00,SummerDesignDay
7,2957712.54260653
2,1, 7,21, 0,19, 0.00,10.00,SummerDesignDay
7,3081214.29327079
2,1, 7,21, 0,19,10.00,20.00,SummerDesignDay
7,3034979.76619706
2,1, 7,21, 0,19,20.00,30.00,SummerDesignDay
7,2987338.75026878
2,1, 7,21, 0,19,30.00,40.00,SummerDesignDay
7,2936891.60843668
2,1, 7,21, 0,19,40.00,50.00,SummerDesignDay
7,2879362.93104308
2,1, 7,21, 0,19,50.00,60.00,SummerDesignDay
7,2819976.14542905
2,1, 7,21, 0,20, 0.00,10.00,SummerDesignDay
7,2816802.82851625
2,1, 7,21, 0,20,10.00,20.00,SummerDesignDay
7,2764347.18638553
2,1, 7,21, 0,20,20.00,30.00,SummerDesignDay
7,2722852.84454512
2,1, 7,21, 0,20,30.00,40.00,SummerDesignDay
7,2684797.52427461
2,1, 7,21, 0,20,40.00,50.00,SummerDesignDay
7,2648093.08755759
2,1, 7,21, 0,20,50.00,60.00,SummerDesignDay
7,2611733.78741818
2,1, 7,21, 0,21, 0.00,10.00,SummerDesignDay
7,2552740.56609068
2,1, 7,21, 0,21,10.00,20.00,SummerDesignDay
7,2520624.24812432
2,1, 7,21, 0,21,20.00,30.00,SummerDesignDay
7,2494176.28580731
2,1, 7,21, 0,21,30.00,40.00,SummerDesignDay
7,2440425.65503356
2,1, 7,21, 0,21,40.00,50.00,SummerDesignDay
7,2386091.35357653
2,1, 7,21, 0,21,50.00,60.00,SummerDesignDay
7,2331014.00777633
2,1, 7,21, 0,22, 0.00,10.00,SummerDesignDay
7,2011982.39878169
2,1, 7,21, 0,22,10.00,20.00,SummerDesignDay
7,1954648.8913456
2,1, 7,21, 0,22,20.00,30.00,SummerDesignDay
7,1896491.09694482
2,1, 7,21, 0,22,30.00,40.00,SummerDesignDay
7,1837689.84283838
2,1, 7,21, 0,22,40.00,50.00,SummerDesignDay
7,1778475.41965989
2,1, 7,21, 0,22,50.00,60.00,SummerDesignDay
7,1718813.33039611
2,1, 7,21, 0,23, 0.00,10.00,SummerDesignDay
7,1290383.45396848
2,1, 7,21, 0,23,10.00,20.00,SummerDesignDay
7,1254773.27291208
2,1, 7,21, 0,23,20.00,30.00,SummerDesignDay
7,1254773.27291208
2,1, 7,21, 0,23,30.00,40.00,SummerDesignDay
7,1254773.27291208
2,1, 7,21, 0,23,40.00,50.00,SummerDesignDay
7,1254773.27291208
2,1, 7,21, 0,23,50.00,60.00,SummerDesignDay
7,1254773.27291208
2,1, 7,21, 0,24, 0.00,10.00,SummerDesignDay
7,1025069.50971235
2,1, 7,21, 0,24,10.00,20.00,SummerDesignDay
7,1025069.50971235
2,1, 7,21, 0,24,20.00,30.00,SummerDesignDay
7,1025069.50971235
2,1, 7,21, 0,24,30.00,40.00,SummerDesignDay
7,1025069.50971235
2,1, 7,21, 0,24,40.00,50.00,SummerDesignDay
7,1025069.50971235
2,1, 7,21, 0,24,50.00,60.00,SummerDesignDay
7,1025069.50971235
1,DENVER CENTENNIAL  GOLDEN   N ANN CLG .4% CONDNS DP=>MDB,  39.74,-105.18,  -7.00,1829.00
2,1, 7,21, 0, 1, 0.00,10.00,SummerDesignDay
7,873997.270824218
2,1, 7,21, 0, 1,10.00,20.00,SummerDesignDay
7,873997.270824218
2,1, 7,21, 0, 1,20.00,30.00,SummerDesignDay
7,873997.270824218
2,1, 7,21, 0, 1,30.00,40.00,SummerDesignDay
7,873997.270824218
2,1, 7,21, 0, 1,40.00,50.00,SummerDesignDay
7,873997.270824218
2,1, 7,21, 0, 1,50.00,60.00,SummerDesignDay
7,873997.270824218
2,1, 7,21, 0, 2, 0.00,10.00,SummerDesignDay
7,844689.621890885
2,1, 7,21, 0, 2,10.00,20.00,SummerDesignDay
7,844689.621890885
2,1, 7,21, 0, 2,20.00,30.00,SummerDesignDay
7,844689.621890885
2,1, 7,21, 0, 2,30.00,40.00,SummerDesignDay
7,844689.621890885
2,1, 7,21, 0, 2,40.00,50.00,SummerDesignDay
7,844689.621890885
2,1, 7,21, 0, 2,50.00,60.00,SummerDesignDay
7,844689.621890885
2,1, 7,21, 0, 3, 0.00,10.00,SummerDesignDay
7,830035.797424218
2,1, 7,21, 0, 3,10.00,20.00,SummerDesignDay
7,830035.797424218
2,1, 7,21, 0, 3,20.00,30.00,SummerDesignDay
7,830035.797424218
2,1, 7,21, 0, 3,30.00,40.00,SummerDesignDay
7,830035.797424218
2,1, 7,21, 0, 3,40.00,50.00,SummerDesignDay
7,830035.797424218
2,1, 7,21, 0, 3,50.00,60.00,SummerDesignDay
7,830035.797424218
2,1, 7,21, 0, 4, 0.00,10.00,SummerDesignDay
7,822708.885190885
2,1, 7,21, 0, 4,10.00,20.00,SummerDesignDay
7,822708.885190885
2,1, 7,21, 0, 4,20.00,30.00,SummerDesignDay
7,822708.885190885
2,1, 7,21, 0, 4,30.00,40.00,SummerDesignDay
7,822708.885190885
2,1, 7,21, 0, 4,40.00,50.00,SummerDesignDay
7,822708.885190885
2,1, 7,21, 0, 4,50.00,60.00,SummerDesignDay
7,822708.885190885
2,1, 7,21, 0, 5, 0.00,10.00,SummerDesignDay
7,894737.762422885
2,1, 7,21, 0, 5,10.00,20.00,SummerDesignDay
7,894737.762422885
2,1, 7,21, 0, 5,20.00,30.00,SummerDesignDay
7,894737.762422885
2,1, 7,21, 0, 5,30.00,40.00,SummerDesignDay
7,894737.762422885
2,1, 7,21, 0, 5,40.00,50.00,SummerDesignDay
7,894737.762422885
2,1, 7,21, 0, 5,50.00,60.00,SummerDesignDay
7,894737.762422885
2,1, 7,21, 0, 6, 0.00,10.00,SummerDesignDay
7,1055622.13681475
2,1, 7,21, 0, 6,10.00,20.00,SummerDesignDay
7,1055622.13681475
2,1, 7,21, 0, 6,20.00,30.00,SummerDesignDay
7,1055622.13681475
2,1, 7,21, 0, 6,30.00,40.00,SummerDesignDay
7,1055622.13681475
2,1, 7,21, 0, 6,40.00,50.00,SummerDesignDay
7,1055622.13681475
2,1, 7,21, 0, 6,50.00,60.00,SummerDesignDay
7,1055622.13681475
2,1, 7,21, 0, 7, 0.00,10.00,SummerDesignDay
7,1163829.24098702
2,1, 7,21, 0, 7,10.00,20.00,SummerDesignDay
7,1163829.24098702
2,1, 7,21, 0, 7,20.00,30.00,SummerDesignDay
7,1163829.24098702
2,1, 7,21, 0, 7,30.00,40.00,SummerDesignDay
7,1163829.24098702
2,1, 7,21, 0, 7,40.00,50.00,SummerDesignDay
7,1163829.24098702
2,1, 7,21, 0, 7,50.00,60.00,SummerDesignDay
7,1163829.24098702
2,1, 7,21, 0, 8, 0.00,10.00,SummerDesignDay
7,1216213.96530448
2,1, 7,21, 0, 8,10.00,20.00,SummerDesignDay
7,1216213.96530448
2,1, 7,21, 0, 8,20.00,30.00,SummerDesignDay
7,1216213.96530448
2,1, 7,21, 0, 8,30.00,40.00,SummerDesignDay
7,1216213.96530448
2,1, 7,21, 0, 8,40.00,50.00,SummerDesignDay
7,1216213.96530448
2,1, 7,21, 0, 8,50.00,60.00,SummerDesignDay
7,1216213.96530448
2,1, 7,21, 0, 9, 0.00,10.00,SummerDesignDay
7,1090887.69530222
2,1, 7,21, 0, 9,10.00,20.00,SummerDesignDay
7,1090887.69530222
2,1, 7,21, 0, 9,20.00,30.00,SummerDesignDay
7,1090887.69530222
2,1, 7,21, 0, 9,30.00,40.00,SummerDesignDay
7,1090887.69530222
2,1, 7,21, 0, 9,40.00,50.00,SummerDesignDay
7,1090887.69530222
2,1, 7,21, 0, 9,50.00,60.00,SummerDesignDay
7,1090887.69530222
2,1, 7,21, 0,10, 0.00,10.00,SummerDesignDay
7,1066401.85342475
2,1, 7,21, 0,10,10.00,20.00,SummerDesignDay
7,1066401.85342475
2,1, 7,21, 0,10,20.00,30.00,SummerDesignDay
7,1066401.85342475
2,1, 7,21, 0,10,30.00,40.00,SummerDesignDay
7,1066401.85342475
2,1, 7,21, 0,10,40.00,50.00,SummerDesignDay
7,1066401.85342475
2,1, 7,21, 0,10,50.00,60.00,SummerDesignDay
7,1066401.85342475
2,1, 7,21, 0,11, 0.00,10.00,SummerDesignDay
7,1081055.67789142
2,1, 7,21, 0,11,10.00,20.00,SummerDesignDay
7,1081055.67789142
2,1, 7,21, 0,11,20.00,30.00,SummerDesignDay
7,1081055.67789142
2,1, 7,21, 0,11,30.00,40.00,SummerDesignDay
7,1081055.67789142
2,1, 7,21, 0,11,40.00,50.00,SummerDesignDay
7,1081055.67789142
2,1, 7,21, 0,11,50.00,60.00,SummerDesignDay
7,1081055.67789142
2,1, 7,21, 0,12, 0.00,10.00,SummerDesignDay
7,1088382.59012475
2,1, 7,21, 0,12,10.00,20.00,SummerDesignDay
7,1088382.59012475
2,1, 7,21, 0,12,20.00,30.00,SummerDesignDay
7,1088382.59012475
2,1, 7,21, 0,12,30.00,40.00,SummerDesignDay
7,1088382.59012475
2,1, 7,21, 0,12,40.00,50.00,SummerDesignDay
7,1088382.59012475
2,1, 7,21, 0,12,50.00,60.00,SummerDesignDay
7,1088382.59012475
2,1, 7,21, 0,13, 0.00,10.00,SummerDesignDay
7,1081055.67789142
2,1, 7,21, 0,13,10.00,20.00,SummerDesignDay
7,1081055.67789142
2,1, 7,21, 0,13,20.00,30.00,SummerDesignDay
7,1081055.67789142
2,1, 7,21, 0,13,30.00,40.00,SummerDesignDay
7,1081055.67789142
2,1, 7,21, 0,13,40.00,50.00,SummerDesignDay
7,1081055.67789142
2,1, 7,21, 0,13,50.00,60.00,SummerDesignDay
7,1081055.67789142
2,1, 7,21, 0,14, 0.00,10.00,SummerDesignDay
7,1059074.94119142
2,1, 7,21, 0,14,10.00,20.00,SummerDesignDay
7,1059074.94119142
2,1, 7,21, 0,14,20.00,30.00,SummerDesignDay
7,1059074.94119142
2,1, 7,21, 0,14,30.00,40.00,SummerDesignDay
7,1059074.94119142
2,1, 7,21, 0,14,40.00,50.00,SummerDesignDay
7,1059074.94119142
2,1, 7,21, 0,14,50.00,60.00,SummerDesignDay
7,1059074.94119142
2,1, 7,21, 0,15, 0.00,10.00,SummerDesignDay
7,1051748.02895809
2,1, 7,21, 0,15,10.00,20.00,SummerDesignDay
7,1051748.02895809
2,1, 7,21, 0,15,20.00,30.00,SummerDesignDay
7,1051748.02895809
2,1, 7,21, 0,15,30.00,40.00,SummerDesignDay
7,1051748.02895809
2,1, 7,21, 0,15,40.00,50.00,SummerDesignDay
7,1051748.02895809
2,1, 7,21, 0,15,50.00,60.00,SummerDesignDay
7,1051748.02895809
2,1, 7,21, 0,16, 0.00,10.00,SummerDesignDay
7,1125949.70165128
2,1, 7,21, 0,16,10.00,20.00,SummerDesignDay
7,1125949.70165128
2,1, 7,21, 0,16,20.00,30.00,SummerDesignDay
7,1125949.70165128
2,1, 7,21, 0,16,30.00,40.00,SummerDesignDay
7,1125949.70165128
2,1, 7,21, 0,16,40.00,50.00,SummerDesignDay
7,1125949.70165128
2,1, 7,21, 0,16,50.00,60.00,SummerDesignDay
7,1125949.70165128
2,1, 7,21, 0,17, 0.00,10.00,SummerDesignDay
7,1353728.71841008
2,1, 7,21, 0,17,10.00,20.00,SummerDesignDay
7,1353728.71841008
2,1, 7,21, 0,17,20.00,30.00,SummerDesignDay
7,1353728.71841008
2,1, 7,21, 0,17,30.00,40.00,SummerDesignDay
7,1353728.71841008
2,1, 7,21, 0,17,40.00,50.00,SummerDesignDay
7,1353728.71841008
2,1, 7,21, 0,17,50.00,60.00,SummerDesignDay
7,1353728.71841008
2,1, 7,21, 0,18, 0.00,10.00,SummerDesignDay
7,1606509.55699395
2,1, 7,21, 0,18,10.00,20.00,SummerDesignDay
7,1606509.55699395
2,1, 7,21, 0,18,20.00,30.00,SummerDesignDay
7,1606509.55699395
2,1, 7,21, 0,18,30.00,40.00,SummerDesignDay
7,1606509.55699395
2,1, 7,21, 0,18,40.00,50.00,SummerDesignDay
7,1606509.55699395
2,1, 7,21, 0,18,50.00,60.00,SummerDesignDay
7,1606509.55699395
2,1, 7,21, 0,19, 0.00,10.00,SummerDesignDay
7,1734360.81408075
2,1, 7,21, 0,19,10.00,20.00,SummerDesignDay
7,1734360.81408075
2,1, 7,21, 0,19,20.00,30.00,SummerDesignDay
7,1734360.81408075
2,1, 7,21, 0,19,30.00,40.00,SummerDesignDay
7,1734360.81408075
2,1, 7,21, 0,19,40.00,50.00,SummerDesignDay
7,1734360.81408075
2,1, 7,21, 0,19,50.00,60.00,SummerDesignDay
7,1734360.81408075
2,1, 7,21, 0,20, 0.00,10.00,SummerDesignDay
7,1777310.20949262
2,1, 7,21, 0,20,10.00,20.00,SummerDesignDay
7,1777310.20949262
2,1, 7,21, 0,20,20.00,30.00,SummerDesignDay
7,1777310.20949262
2,1, 7,21, 0,20,30.00,40.00,SummerDesignDay
7,1777310.20949262
2,1, 7,21, 0,20,40.00,50.00,SummerDesignDay
7,1777310.20949262
2,1, 7,21, 0,20,50.00,60.00,SummerDesignDay
7,1777310.20949262
2,1, 7,21, 0,21, 0.00,10.00,SummerDesignDay
7,1756405.92956968
2,1, 7,21, 0,21,10.00,20.00,SummerDesignDay
7,1756405.92956968
2,1, 7,21, 0,21,20.00,30.00,SummerDesignDay
7,1756405.92956968
2,1, 7,21, 0,21,30.00,40.00,SummerDesignDay
7,1756405.92956968
2,1, 7,21, 0,21,40.00,50.00,SummerDesignDay
7,1756405.92956968
2,1, 7,21, 0,21,50.00,60.00,SummerDesignDay
7,1756405.92956968
2,1, 7,21, 0,22, 0.00,10.00,SummerDesignDay
7,1542224.16240755
2,1, 7,21, 0,22,10.00,20.00,SummerDesignDay
7,1542224.16240755
2,1, 7,21, 0,22,20.00,30.00,SummerDesignDay
7,1542224.16240755
2,1, 7,21, 0,22,30.00,40.00,SummerDesignDay
7,1542224.16240755
2,1, 7,21, 0,22,40.00,50.00,SummerDesignDay
7,1542224.16240755
2,1, 7,21, 0,22,50.00,60.00,SummerDesignDay
7,1542224.16240755
2,1, 7,21, 0,23, 0.00,10.00,SummerDesignDay
7,1254773.27291208
2,1, 7,21, 0,23,10.00,20.00,SummerDesignDay
7,1254773.27291208
2,1, 7,21, 0,23,20.00,30.00,SummerDesignDay
7,1254773.27291208
2,1, 7,21, 0,23,30.00,40.00,SummerDesignDay
7,1254773.27291208
2,1, 7,21, 0,23,40.00,50.00,SummerDesignDay
7,1254773.27291208
2,1, 7,21, 0,23,50.00,60.00,SummerDesignDay
7,1254773.27291208
2,1, 7,21, 0,24, 0.00,10.00,SummerDesignDay
7,1025069.50971235
2,1, 7,21, 0,24,10.00,20.00,SummerDesignDay
7,1025069.50971235
2,1, 7,21, 0,24,20.00,30.00,SummerDesignDay
7,1025069.50971235
2,1, 7,21, 0,24,30.00,40.00,SummerDesignDay
7,1025069.50971235
2,1, 7,21, 0,24,40.00,50.00,SummerDesignDay
7,1025069.50971235
2,1, 7,21, 0,24,50.00,60.00,SummerDesignDay
7,1025069.50971235
1,DENVER CENTENNIAL  GOLDEN   N ANN CLG .4% CONDNS ENTH=>MDB,  39.74,-105.18,  -7.00,1829.00
2,1, 7,21, 0, 1, 0.00,10.00,SummerDesignDay
7,873997.270824218
2,1, 7,21, 0, 1,10.00,20.00,SummerDesignDay
7,873997.270824218
2,1, 7,21, 0, 1,20.00,30.00,SummerDesignDay
7,873997.270824218
2,1, 7,21, 0, 1,30.00,40.00,SummerDesignDay
7,873997.270824218
2,1, 7,21, 0, 1,40.00,50.00,SummerDesignDay
7,873997.270824218
2,1, 7,21, 0, 1,50.00,60.00,SummerDesignDay
7,873997.270824218
2,1, 7,21, 0, 2, 0.00,10.00,SummerDesignDay
7,844689.621890885
2,1, 7,21, 0, 2,10.00,20.00,SummerDesignDay
7,844689.621890885
2,1, 7,21, 0, 2,20.00,30.00,SummerDesignDay
7,844689.621890885
2,1, 7,21, 0, 2,30.00,40.00,SummerDesignDay
7,844689.621890885
2,1, 7,21, 0, 2,40.00,50.00,SummerDesignDay
7,844689.621890885
2,1, 7,21, 0, 2,50.00,60.00,SummerDesignDay
7,844689.621890885
2,1, 7,21, 0, 3, 0.00,10.00,SummerDesignDay
7,830035.797424218
2,1, 7,21, 0, 3,10.00,20.00,SummerDesignDay
7,830035.797424218
2,1, 7,21, 0, 3,20.00,30.00,SummerDesignDay
7,830035.797424218
2,1, 7,21, 0, 3,30.00,40.00,SummerDesignDay
7,830035.797424218
2,1, 7,21, 0, 3,40.00,50.00,SummerDesignDay
7,830035.797424218
2,1, 7,21, 0, 3,50.00,60.00,SummerDesignDay
7,830035.797424218
2,1, 7,21, 0, 4, 0.00,10.00,SummerDesignDay
7,822708.885190885
2,1, 7,21, 0, 4,10.00,20.00,SummerDesignDay
7,822708.885190885
2,1, 7,21, 0, 4,20.00,30.00,SummerDesignDay
7,822708.885190885
2,1, 7,21, 0, 4,30.00,40.00,SummerDesignDay
7,822708.885190885
2,1, 7,21, 0, 4,40.00,50.00,SummerDesignDay
7,822708.885190885
2,1, 7,21, 0, 4,50.00,60.00,SummerDesignDay
7,822708.885190885
2,1, 7,21, 0, 5, 0.00,10.00,SummerDesignDay
7,894737.762422885
2,1, 7,21, 0, 5,10.00,20.00,SummerDesignDay
7,894737.762422885
2,1, 7,21, 0, 5,20.00,30.00,SummerDesignDay
7,894737.762422885
2,1, 7,21, 0, 5,30.00,40.00,SummerDesignDay
7,894737.762422885
2,1, 7,21, 0, 5,40.00,50.00,SummerDesignDay
7,894737.762422885
2,1, 7,21, 0, 5,50.00,60.00,SummerDesignDay
7,894737.762422885
2,1, 7,21, 0, 6, 0.00,10.00,SummerDesignDay
7,1055622.13681475
2,1, 7,21, 0, 6,10.00,20.00,SummerDesignDay
7,1055622.13681475
2,1, 7,21, 0, 6,20.00,30.00,SummerDesignDay
7,1055622.13681475
2,1, 7,21, 0, 6,30.00,40.00,SummerDesignDay
7,1055622.13681475
2,1, 7,21, 0, 6,40.00,50.00,SummerDesignDay
7,1055622.13681475
2,1, 7,21, 0, 6,50.00,60.00,SummerDesignDay
7,1055622.13681475
2,1, 7,21, 0, 7, 0.00,10.00,SummerDesignDay
7,1163829.24098702
2,1, 7,21, 0, 7,10.00,20.00,SummerDesignDay
7,1163829.24098702
2,1, 7,21, 0, 7,20.00,30.00,SummerDesignDay
7,1163829.24098702
2,1, 7,21, 0, 7,30.00,40.00,SummerDesignDay
7,1163829.24098702
2,1, 7,21, 0, 7,40.00,50.00,SummerDesignDay
7,1163829.24098702
2,1, 7,21, 0, 7,50.00,60.00,SummerDesignDay
7,1163829.24098702
2,1, 7,21, 0, 8, 0.00,10.00,SummerDesignDay
7,1216213.96530448
2,1, 7,21, 0, 8,10.00,20.00,SummerDesignDay
7,1216213.96530448
2,1, 7,21, 0, 8,20.00,30.00,SummerDesignDay
7,1216213.96530448
2,1, 7,21, 0, 8,30.00,40.00,SummerDesignDay
7,1216213.96530448
2,1, 7,21, 0, 8,40.00,50.00,SummerDesignDay
7,1216213.96530448
2,1, 7,21, 0, 8,50.00,60.00,SummerDesignDay
7,1216213.96530448
2,1, 7,21, 0, 9, 0.00,10.00,SummerDesignDay
7,1090887.69530222
2,1, 7,21, 0, 9,10.00,20.00,SummerDesignDay
7,1090887.69530222
2,1, 7,21, 0, 9,20.00,30.00,SummerDesignDay
7,1090887.69530222
2,1, 7,21, 0, 9,30.00,40.00,SummerDesignDay
7,1090887.69530222
2,1, 7,21, 0, 9,40.00,50.00,SummerDesignDay
7,1090887.69530222
2,1, 7,21, 0, 9,50.00,60.00,SummerDesignDay
7,1090887.69530222
2,1, 7,21, 0,10, 0.00,10.00,SummerDesignDay
7,1132187.61940881
2,1, 7,21, 0,10,10.00,20.00,SummerDesignDay
7,1121473.58862716
2,1, 7,21, 0,10,20.00,30.00,SummerDesignDay
7,1132919.45908805
2,1, 7,21, 0,10,30.00,40.00,SummerDesignDay
7,1126269.57587682
2,1, 7,21, 0,10,40.00,50.00,SummerDesignDay
7,1129068.17061353
2,1, 7,21, 0,10,50.00,60.00,SummerDesignDay
7,1126138.08185202
2,1, 7,21, 0,11, 0.00,10.00,SummerDesignDay
7,1141757.28224567
2,1, 7,21, 0,11,10.00,20.00,SummerDesignDay
7,1140874.08722463
2,1, 7,21, 0,11,20.00,30.00,SummerDesignDay
7,1139664.93111157
2,1, 7,21, 0,11,30.00,40.00,SummerDesignDay
7,1139922.41702395
2,1, 7,21, 0,11,40.00,50.00,SummerDesignDay
7,1233456.4353791
2,1, 7,21, 0,11,50.00,60.00,SummerDesignDay
7,1388374.2454182
2,1, 7,21, 0,12, 0.00,10.00,SummerDesignDay
7,1520388.60484425
2,1, 7,21, 0,12,10.00,20.00,SummerDesignDay
7,1631093.6453925
2,1, 7,21, 0,12,20.00,30.00,SummerDesignDay
7,1730859.17874417
2,1, 7,21, 0,12,30.00,40.00,SummerDesignDay
7,1823506.19490203
2,1, 7,21, 0,12,40.00,50.00,SummerDesignDay
7,1905124.30478553
2,1, 7,21, 0,12,50.00,60.00,SummerDesignDay
7,1977996.36832553
2,1, 7,21, 0,13, 0.00,10.00,SummerDesignDay
7,2028544.68448877
2,1, 7,21, 0,13,10.00,20.00,SummerDesignDay
7,2097598.00349517
2,1, 7,21, 0,13,20.00,30.00,SummerDesignDay
7,2163180.3419333
2,1, 7,21, 0,13,30.00,40.00,SummerDesignDay
7,2222808.39263269
2,1, 7,21, 0,13,40.00,50.00,SummerDesignDay
7,2278218.3417297
2,1, 7,21, 0,13,50.00,60.00,SummerDesignDay
7,2332755.93136816
2,1, 7,21, 0,14, 0.00,10.00,SummerDesignDay
7,2338683.77640722
2,1, 7,21, 0,14,10.00,20.00,SummerDesignDay
7,2384252.38004228
2,1, 7,21, 0,14,20.00,30.00,SummerDesignDay
7,2430062.34615003
2,1, 7,21, 0,14,30.00,40.00,SummerDesignDay
7,2478953.23092073
2,1, 7,21, 0,14,40.00,50.00,SummerDesignDay
7,2533900.27350607
2,1, 7,21, 0,14,50.00,60.00,SummerDesignDay
7,2590590.93917339
2,1, 7,21, 0,15, 0.00,10.00,SummerDesignDay
7,2594952.9210714
2,1, 7,21, 0,15,10.00,20.00,SummerDesignDay
7,2594952.9210714
2,1, 7,21, 0,15,20.00,30.00,SummerDesignDay
7,2594952.9210714
2,1, 7,21, 0,15,30.00,40.00,SummerDesignDay
7,2594952.9210714
2,1, 7,21, 0,15,40.00,50.00,SummerDesignDay
7,2594952.9210714
2,1, 7,21, 0,15,50.00,60.00,SummerDesignDay
7,2594952.9210714
2,1, 7,21, 0,16, 0.00,10.00,SummerDesignDay
7,2667066.90299418
2,1, 7,21, 0,16,10.00,20.00,SummerDesignDay
7,2665023.29565479
2,1, 7,21, 0,16,20.00,30.00,SummerDesignDay
7,2663023.93093112
2,1, 7,21, 0,16,30.00,40.00,SummerDesignDay
7,2661068.96691274
2,1, 7,21, 0,16,40.00,50.00,SummerDesignDay
7,2659158.56059415
2,1, 7,21, 0,16,50.00,60.00,SummerDesignDay
7,2657292.8678748
2,1, 7,21, 0,17, 0.00,10.00,SummerDesignDay
7,2882654.11623419
2,1, 7,21, 0,17,10.00,20.00,SummerDesignDay
7,2880316.47767472
2,1, 7,21, 0,17,20.00,30.00,SummerDesignDay
7,2878059.32940949
2,1, 7,21, 0,17,30.00,40.00,SummerDesignDay
7,2875883.02843185
2,1, 7,21, 0,17,40.00,50.00,SummerDesignDay
7,2873787.92827413
2,1, 7,21, 0,17,50.00,60.00,SummerDesignDay
7,2871774.37900769
2,1, 7,21, 0,18, 0.00,10.00,SummerDesignDay
7,3122153.48965908
2,1, 7,21, 0,18,10.00,20.00,SummerDesignDay
7,3118596.62822386
2,1, 7,21, 0,18,20.00,30.00,SummerDesignDay
7,3114257.32597175
2,1, 7,21, 0,18,30.00,40.00,SummerDesignDay
7,3109843.36808456
2,1, 7,21, 0,18,40.00,50.00,SummerDesignDay
7,3054568.70966247
2,1, 7,21, 0,18,50.00,60.00,SummerDesignDay
7,2980403.5229949
2,1, 7,21, 0,19, 0.00,10.00,SummerDesignDay
7,3097067.46289858
2,1, 7,21, 0,19,10.00,20.00,SummerDesignDay
7,2999695.07865796
2,1, 7,21, 0,19,20.00,30.00,SummerDesignDay
7,2904833.06410247
2,1, 7,21, 0,19,30.00,40.00,SummerDesignDay
7,2807156.37816268
2,1, 7,21, 0,19,40.00,50.00,SummerDesignDay
7,2696024.25560091
2,1, 7,21, 0,19,50.00,60.00,SummerDesignDay
7,2585543.77337834
2,1, 7,21, 0,20, 0.00,10.00,SummerDesignDay
7,2543415.07075319
2,1, 7,21, 0,20,10.00,20.00,SummerDesignDay
7,2440291.47982953
2,1, 7,21, 0,20,20.00,30.00,SummerDesignDay
7,2360354.42462995
2,1, 7,21, 0,20,30.00,40.00,SummerDesignDay
7,2284976.41953068
2,1, 7,21, 0,20,40.00,50.00,SummerDesignDay
7,2210862.96206474
2,1, 7,21, 0,20,50.00,60.00,SummerDesignDay
7,2138208.89454835
2,1, 7,21, 0,21, 0.00,10.00,SummerDesignDay
7,2039124.88070316
2,1, 7,21, 0,21,10.00,20.00,SummerDesignDay
7,1756405.92956968
2,1, 7,21, 0,21,20.00,30.00,SummerDesignDay
7,1756405.92956968
2,1, 7,21, 0,21,30.00,40.00,SummerDesignDay
7,1756405.92956968
2,1, 7,21, 0,21,40.00,50.00,SummerDesignDay
7,1756405.92956968
2,1, 7,21, 0,21,50.00,60.00,SummerDesignDay
7,1756405.92956968
2,1, 7,21, 0,22, 0.00,10.00,SummerDesignDay
7,1542224.16240755
2,1, 7,21, 0,22,10.00,20.00,SummerDesignDay
7,1542224.16240755
2,1, 7,21, 0,22,20.00,30.00,SummerDesignDay
7,1542224.16240755
2,1, 7,21, 0,22,30.00,40.00,SummerDesignDay
7,1542224.16240755
2,1, 7,21, 0,22,40.00,50.00,SummerDesignDay
7,1542224.16240755
2,1, 7,21, 0,22,50.00,60.00,SummerDesignDay
7,1542224.16240755
2,1, 7,21, 0,23, 0.00,10.00,SummerDesignDay
7,1254773.27291208
2,1, 7,21, 0,23,10.00,20.00,SummerDesignDay
7,1254773.27291208
2,1, 7,21, 0,23,20.00,30.00,SummerDesignDay
7,1254773.27291208
2,1, 7,21, 0,23,30.00,40.00,SummerDesignDay
7,1254773.27291208
2,1, 7,21, 0,23,40.00,50.00,SummerDesignDay
7,1254773.27291208
2,1, 7,21, 0,23,50.00,60.00,SummerDesignDay
7,1254773.27291208
2,1, 7,21, 0,24, 0.00,10.00,SummerDesignDay
7,1025069.50971235
2,1, 7,21, 0,24,10.00,20.00,SummerDesignDay
7,1025069.50971235
2,1, 7,21, 0,24,20.00,30.00,SummerDesignDay
7,1025069.50971235
2,1, 7,21, 0,24,30.00,40.00,SummerDesignDay
7,1025069.50971235
2,1, 7,21, 0,24,40.00,50.00,SummerDesignDay
7,1025069.50971235
2,1, 7,21, 0,24,50.00,60.00,SummerDesignDay
7,1025069.50971235
1,DENVER CENTENNIAL  GOLDEN   N ANN CLG .4% CONDNS WB=>MDB,  39.74,-105.18,  -7.00,1829.00
2,1, 7,21, 0, 1, 0.00,10.00,SummerDesignDay
7,873997.270824218
2,1, 7,21, 0, 1,10.00,20.00,SummerDesignDay
7,873997.270824218
2,1, 7,21, 0, 1,20.00,30.00,SummerDesignDay
7,873997.270824218
2,1, 7,21, 0, 1,30.00,40.00,SummerDesignDay
7,873997.270824218
2,1, 7,21, 0, 1,40.00,50.00,SummerDesignDay
7,873997.270824218
2,1, 7,21, 0, 1,50.00,60.00,SummerDesignDay
7,873997.270824218
2,1, 7,21, 0, 2, 0.00,10.00,SummerDesignDay
7,844689.621890885
2,1, 7,21, 0, 2,10.00,20.00,SummerDesignDay
7,844689.621890885
2,1, 7,21, 0, 2,20.00,30.00,SummerDesignDay
7,844689.621890885
2,1, 7,21, 0, 2,30.00,40.00,SummerDesignDay
7,844689.621890885
2,1, 7,21, 0, 2,40.00,50.00,SummerDesignDay
7,844689.621890885
2,1, 7,21, 0, 2,50.00,60.00,SummerDesignDay
7,844689.621890885
2,1, 7,21, 0, 3, 0.00,10.00,SummerDesignDay
7,830035.797424218
2,1, 7,21, 0, 3,10.00,20.00,SummerDesignDay
7,830035.797424218
2,1, 7,21, 0, 3,20.00,30.00,SummerDesignDay
7,830035.797424218
2,1, 7,21, 0, 3,30.00,40.00,SummerDesignDay
7,830035.797424218
2,1, 7,21, 0, 3,40.00,50.00,SummerDesignDay
7,830035.797424218
2,1, 7,21, 0, 3,50.00,60.00,SummerDesignDay
7,830035.797424218
2,1, 7,21, 0, 4, 0.00,10.00,SummerDesignDay
7,822708.885190885
2,1, 7,21, 0, 4,10.00,20.00,SummerDesignDay
7,822708.885190885
2,1, 7,21, 0, 4,20.00,30.00,SummerDesignDay
7,822708.885190885
2,1, 7,21, 0, 4,30.00,40.00,SummerDesignDay
7,822708.885190885
2,1, 7,21, 0, 4,40.00,50.00,SummerDesignDay
7,822708.885190885
2,1, 7,21, 0, 4,50.00,60.00,SummerDesignDay
7,822708.885190885
2,1, 7,21, 0, 5, 0.00,10.00,SummerDesignDay
7,894737.762422885
2,1, 7,21, 0, 5,10.00,20.00,SummerDesignDay
7,894737.762422885
2,1, 7,21, 0, 5,20.00,30.00,SummerDesignDay
7,894737.762422885
2,1, 7,21, 0, 5,30.00,40.00,SummerDesignDay
7,894737.762422885
2,1, 7,21, 0, 5,40.00,50.00,SummerDesignDay